<?xml version="1.0"?>
<VTKFile type="UnstructuredGrid" version="1.0" byte_order="LittleEndian" compressor="vtkZLibDataCompressor">
  <UnstructuredGrid>
    <Piece NumberOfPoints="51" NumberOfCells="1">
      <Points>
        <DataArray type="Float32" Name="Points" NumberOfComponents="3" format="ascii">
          0.0000000000e+00 0.0000000000e+00 0.0000000000e+00 
          2.0000000000e-01 0.0000000000e+00 0.0000000000e+00 
          4.0000000000e-01 0.0000000000e+00 0.0000000000e+00 
          6.0000000000e-01 0.0000000000e+00 0.0000000000e+00 
          8.0000000000e-01 0.0000000000e+00 0.0000000000e+00 
          1.0000000000e+00 0.0000000000e+00 0.0000000000e+00 
          1.2000000000e+00 0.0000000000e+00 0.0000000000e+00 
          1.4000000000e+00 0.0000000000e+00 0.0000000000e+00 
          1.6000000000e+00 0.0000000000e+00 0.0000000000e+00 
          1.8000000000e+00 0.0000000000e+00 0.0000000000e+00 
          2.0000000000e+00 0.0000000000e+00 0.0000000000e+00 
          2.2000000000e+00 0.0000000000e+00 0.0000000000e+00 
          2.4000000000e+00 0.0000000000e+00 0.0000000000e+00 
          2.6000000000e+00 0.0000000000e+00 0.0000000000e+00 
          2.8000000000e+00 0.0000000000e+00 0.0000000000e+00 
          3.0000000000e+00 0.0000000000e+00 0.0000000000e+00 
          3.2000000000e+00 0.0000000000e+00 0.0000000000e+00 
          3.4000000000e+00 0.0000000000e+00 0.0000000000e+00 
          3.6000000000e+00 0.0000000000e+00 0.0000000000e+00 
          3.8000000000e+00 0.0000000000e+00 0.0000000000e+00 
          4.0000000000e+00 0.0000000000e+00 0.0000000000e+00 
          4.2000000000e+00 0.0000000000e+00 0.0000000000e+00 
          4.4000000000e+00 0.0000000000e+00 0.0000000000e+00 
          4.6000000000e+00 0.0000000000e+00 0.0000000000e+00 
          4.8000000000e+00 0.0000000000e+00 0.0000000000e+00 
          5.0000000000e+00 0.0000000000e+00 0.0000000000e+00 
          5.2000000000e+00 0.0000000000e+00 0.0000000000e+00 
          5.4000000000e+00 0.0000000000e+00 0.0000000000e+00 
          5.6000000000e+00 0.0000000000e+00 0.0000000000e+00 
          5.8000000000e+00 0.0000000000e+00 0.0000000000e+00 
          6.0000000000e+00 0.0000000000e+00 0.0000000000e+00 
          6.2000000000e+00 0.0000000000e+00 0.0000000000e+00 
          6.4000000000e+00 0.0000000000e+00 0.0000000000e+00 
          6.6000000000e+00 0.0000000000e+00 0.0000000000e+00 
          6.8000000000e+00 0.0000000000e+00 0.0000000000e+00 
          7.0000000000e+00 0.0000000000e+00 0.0000000000e+00 
          7.2000000000e+00 0.0000000000e+00 0.0000000000e+00 
          7.4000000000e+00 0.0000000000e+00 0.0000000000e+00 
          7.6000000000e+00 0.0000000000e+00 0.0000000000e+00 
          7.8000000000e+00 0.0000000000e+00 0.0000000000e+00 
          8.0000000000e+00 0.0000000000e+00 0.0000000000e+00 
          8.2000000000e+00 0.0000000000e+00 0.0000000000e+00 
          8.4000000000e+00 0.0000000000e+00 0.0000000000e+00 
          8.6000000000e+00 0.0000000000e+00 0.0000000000e+00 
          8.8000000000e+00 0.0000000000e+00 0.0000000000e+00 
          9.0000000000e+00 0.0000000000e+00 0.0000000000e+00 
          9.2000000000e+00 0.0000000000e+00 0.0000000000e+00 
          9.4000000000e+00 0.0000000000e+00 0.0000000000e+00 
          9.6000000000e+00 0.0000000000e+00 0.0000000000e+00 
          9.8000000000e+00 0.0000000000e+00 0.0000000000e+00 
          1.0000000000e+01 0.0000000000e+00 0.0000000000e+00 
        </DataArray>
      </Points>
      <Cells>
        <DataArray type="Int32" Name="connectivity" format="ascii">
          0
          1
          2
          3
          4
          5
          6
          7
          8
          9
          10
          11
          12
          13
          14
          15
          16
          17
          18
          19
          20
          21
          22
          23
          24
          25
          26
          27
          28
          29
          30
          31
          32
          33
          34
          35
          36
          37
          38
          39
          40
          41
          42
          43
          44
          45
          46
          47
          48
          49
          50
        </DataArray>
        <DataArray type="Int32" Name="offsets" format="ascii">
          51
        </DataArray>
        <DataArray type="Int32" Name="types" format="ascii">
          2
        </DataArray>
      </Cells>
      <PointData>
        <DataArray type="Int32" Name="NodeTag" format="ascii">
          1
          2
          3
          4
          5
          6
          7
          8
          9
          10
          11
          12
          13
          14
          15
          16
          17
          18
          19
          20
          21
          22
          23
          24
          25
          26
          27
          28
          29
          30
          31
          32
          33
          34
          35
          36
          37
          38
          39
          40
          41
          42
          43
          44
          45
          46
          47
          48
          49
          50
          51
        </DataArray>
        <DataArray type="Float32" Name="AllDisplacement" NumberOfComponents="3" format="ascii">
          0.0000000000e+00 0.0000000000e+00 0.0000000000e+00 
          0.0000000000e+00 -7.7088541690e-06 -7.6572916690e-05 
          0.0000000000e+00 -3.0425000009e-05 -1.5008333338e-04 
          0.0000000000e+00 -6.7542187520e-05 -2.2059375007e-04 
          0.0000000000e+00 -1.1846666670e-04 -2.8816666676e-04 
          0.0000000000e+00 -1.8261718756e-04 -3.5286458344e-04 
          0.0000000000e+00 -2.5942500008e-04 -4.1475000013e-04 
          0.0000000000e+00 -3.4833385428e-04 -4.7388541682e-04 
          0.0000000000e+00 -4.4880000014e-04 -5.3033333350e-04 
          0.0000000000e+00 -5.6029218768e-04 -5.8415625019e-04 
          0.0000000000e+00 -6.8229166688e-04 -6.3541666687e-04 
          0.0000000000e+00 -8.1429218776e-04 -6.8417708356e-04 
          0.0000000000e+00 -9.5580000031e-04 -7.3050000024e-04 
          0.0000000000e+00 -1.1063338545e-03 -7.7444791693e-04 
          0.0000000000e+00 -1.2654250004e-03 -8.1608333361e-04 
          0.0000000000e+00 -1.4326171880e-03 -8.5546875029e-04 
          0.0000000000e+00 -1.6074666672e-03 -8.9266666698e-04 
          0.0000000000e+00 -1.7895421881e-03 -9.2773958366e-04 
          0.0000000000e+00 -1.9784250007e-03 -9.6075000034e-04 
          0.0000000000e+00 -2.1737088549e-03 -9.9176041702e-04 
          0.0000000000e+00 -2.3750000008e-03 -1.0208333337e-03 
          0.0000000000e+00 -2.5819171884e-03 -1.0480312504e-03 
          0.0000000000e+00 -2.7940916676e-03 -1.0734166671e-03 
          0.0000000000e+00 -3.0111671885e-03 -1.0970520837e-03 
          0.0000000000e+00 -3.2328000011e-03 -1.1190000004e-03 
          0.0000000000e+00 -3.4586588554e-03 -1.1393229171e-03 
          0.0000000000e+00 -3.6884250013e-03 -1.1580833338e-03 
          0.0000000000e+00 -3.9217921889e-03 -1.1753437505e-03 
          0.0000000000e+00 -4.1584666681e-03 -1.1911666671e-03 
          0.0000000000e+00 -4.3981671891e-03 -1.2056145838e-03 
          0.0000000000e+00 -4.6406250017e-03 -1.2187500005e-03 
          0.0000000000e+00 -4.8855838559e-03 -1.2306354172e-03 
          0.0000000000e+00 -5.1328000019e-03 -1.2413333338e-03 
          0.0000000000e+00 -5.3820421895e-03 -1.2509062505e-03 
          0.0000000000e+00 -5.6330916687e-03 -1.2594166672e-03 
          0.0000000000e+00 -5.8857421897e-03 -1.2669270839e-03 
          0.0000000000e+00 -6.1398000023e-03 -1.2735000005e-03 
          0.0000000000e+00 -6.3950838565e-03 -1.2791979172e-03 
          0.0000000000e+00 -6.6514250025e-03 -1.2840833339e-03 
          0.0000000000e+00 -6.9086671901e-03 -1.2882187505e-03 
          0.0000000000e+00 -7.1666666694e-03 -1.2916666672e-03 
          0.0000000000e+00 -7.4252921903e-03 -1.2944895839e-03 
          0.0000000000e+00 -7.6844250029e-03 -1.2967500006e-03 
          0.0000000000e+00 -7.9439588572e-03 -1.2985104172e-03 
          0.0000000000e+00 -8.2038000031e-03 -1.2998333339e-03 
          0.0000000000e+00 -8.4638671907e-03 -1.3007812506e-03 
          0.0000000000e+00 -8.7240916700e-03 -1.3014166672e-03 
          0.0000000000e+00 -8.9844171910e-03 -1.3018020839e-03 
          0.0000000000e+00 -9.2448000036e-03 -1.3020000006e-03 
          0.0000000000e+00 -9.5052088579e-03 -1.3020729172e-03 
          0.0000000000e+00 -9.7656250038e-03 -1.3020833339e-03 
        </DataArray>
        <DataArray type="Float32" Name="Displacement" NumberOfComponents="3" format="ascii">
          0.0000000000e+00 0.0000000000e+00 0.0000000000e+00 
          0.0000000000e+00 -7.7088541690e-06 0.0000000000e+00 
          0.0000000000e+00 -3.0425000009e-05 0.0000000000e+00 
          0.0000000000e+00 -6.7542187520e-05 0.0000000000e+00 
          0.0000000000e+00 -1.1846666670e-04 0.0000000000e+00 
          0.0000000000e+00 -1.8261718756e-04 0.0000000000e+00 
          0.0000000000e+00 -2.5942500008e-04 0.0000000000e+00 
          0.0000000000e+00 -3.4833385428e-04 0.0000000000e+00 
          0.0000000000e+00 -4.4880000014e-04 0.0000000000e+00 
          0.0000000000e+00 -5.6029218768e-04 0.0000000000e+00 
          0.0000000000e+00 -6.8229166688e-04 0.0000000000e+00 
          0.0000000000e+00 -8.1429218776e-04 0.0000000000e+00 
          0.0000000000e+00 -9.5580000031e-04 0.0000000000e+00 
          0.0000000000e+00 -1.1063338545e-03 0.0000000000e+00 
          0.0000000000e+00 -1.2654250004e-03 0.0000000000e+00 
          0.0000000000e+00 -1.4326171880e-03 0.0000000000e+00 
          0.0000000000e+00 -1.6074666672e-03 0.0000000000e+00 
          0.0000000000e+00 -1.7895421881e-03 0.0000000000e+00 
          0.0000000000e+00 -1.9784250007e-03 0.0000000000e+00 
          0.0000000000e+00 -2.1737088549e-03 0.0000000000e+00 
          0.0000000000e+00 -2.3750000008e-03 0.0000000000e+00 
          0.0000000000e+00 -2.5819171884e-03 0.0000000000e+00 
          0.0000000000e+00 -2.7940916676e-03 0.0000000000e+00 
          0.0000000000e+00 -3.0111671885e-03 0.0000000000e+00 
          0.0000000000e+00 -3.2328000011e-03 0.0000000000e+00 
          0.0000000000e+00 -3.4586588554e-03 0.0000000000e+00 
          0.0000000000e+00 -3.6884250013e-03 0.0000000000e+00 
          0.0000000000e+00 -3.9217921889e-03 0.0000000000e+00 
          0.0000000000e+00 -4.1584666681e-03 0.0000000000e+00 
          0.0000000000e+00 -4.3981671891e-03 0.0000000000e+00 
          0.0000000000e+00 -4.6406250017e-03 0.0000000000e+00 
          0.0000000000e+00 -4.8855838559e-03 0.0000000000e+00 
          0.0000000000e+00 -5.1328000019e-03 0.0000000000e+00 
          0.0000000000e+00 -5.3820421895e-03 0.0000000000e+00 
          0.0000000000e+00 -5.6330916687e-03 0.0000000000e+00 
          0.0000000000e+00 -5.8857421897e-03 0.0000000000e+00 
          0.0000000000e+00 -6.1398000023e-03 0.0000000000e+00 
          0.0000000000e+00 -6.3950838565e-03 0.0000000000e+00 
          0.0000000000e+00 -6.6514250025e-03 0.0000000000e+00 
          0.0000000000e+00 -6.9086671901e-03 0.0000000000e+00 
          0.0000000000e+00 -7.1666666694e-03 0.0000000000e+00 
          0.0000000000e+00 -7.4252921903e-03 0.0000000000e+00 
          0.0000000000e+00 -7.6844250029e-03 0.0000000000e+00 
          0.0000000000e+00 -7.9439588572e-03 0.0000000000e+00 
          0.0000000000e+00 -8.2038000031e-03 0.0000000000e+00 
          0.0000000000e+00 -8.4638671907e-03 0.0000000000e+00 
          0.0000000000e+00 -8.7240916700e-03 0.0000000000e+00 
          0.0000000000e+00 -8.9844171910e-03 0.0000000000e+00 
          0.0000000000e+00 -9.2448000036e-03 0.0000000000e+00 
          0.0000000000e+00 -9.5052088579e-03 0.0000000000e+00 
          0.0000000000e+00 -9.7656250038e-03 0.0000000000e+00 
        </DataArray>
        <DataArray type="Float32" Name="Pressure" format="ascii">
          0.0000000000e+00
          0.0000000000e+00
          0.0000000000e+00
          0.0000000000e+00
          0.0000000000e+00
          0.0000000000e+00
          0.0000000000e+00
          0.0000000000e+00
          0.0000000000e+00
          0.0000000000e+00
          0.0000000000e+00
          0.0000000000e+00
          0.0000000000e+00
          0.0000000000e+00
          0.0000000000e+00
          0.0000000000e+00
          0.0000000000e+00
          0.0000000000e+00
          0.0000000000e+00
          0.0000000000e+00
          0.0000000000e+00
          0.0000000000e+00
          0.0000000000e+00
          0.0000000000e+00
          0.0000000000e+00
          0.0000000000e+00
          0.0000000000e+00
          0.0000000000e+00
          0.0000000000e+00
          0.0000000000e+00
          0.0000000000e+00
          0.0000000000e+00
          0.0000000000e+00
          0.0000000000e+00
          0.0000000000e+00
          0.0000000000e+00
          0.0000000000e+00
          0.0000000000e+00
          0.0000000000e+00
          0.0000000000e+00
          0.0000000000e+00
          0.0000000000e+00
          0.0000000000e+00
          0.0000000000e+00
          0.0000000000e+00
          0.0000000000e+00
          0.0000000000e+00
          0.0000000000e+00
          0.0000000000e+00
          0.0000000000e+00
          0.0000000000e+00
        </DataArray>
      </PointData>
      <CellData>
        <DataArray type="Int32" Name="ElementTag" format="ascii">
          0
        </DataArray>
      </CellData>
    </Piece>
  </UnstructuredGrid>
</VTKFile>
