<?xml version="1.0"?>
<VTKFile type="UnstructuredGrid" version="1.0" byte_order="LittleEndian" compressor="vtkZLibDataCompressor">
  <UnstructuredGrid>
    <Piece NumberOfPoints="195" NumberOfCells="96">
      <Points>
        <DataArray type="Float32" Name="Points" NumberOfComponents="3" format="ascii">
          0.0000000000e+00 0.0000000000e+00 0.0000000000e+00 
          3.0000000000e+00 0.0000000000e+00 0.0000000000e+00 
          3.0000000000e+00 0.0000000000e+00 1.0000000000e+00 
          0.0000000000e+00 0.0000000000e+00 1.0000000000e+00 
          0.0000000000e+00 5.0000000000e-01 0.0000000000e+00 
          3.0000000000e+00 5.0000000000e-01 0.0000000000e+00 
          3.0000000000e+00 5.0000000000e-01 1.0000000000e+00 
          0.0000000000e+00 5.0000000000e-01 1.0000000000e+00 
          2.5000000000e-01 0.0000000000e+00 0.0000000000e+00 
          5.0000000000e-01 0.0000000000e+00 0.0000000000e+00 
          7.5000000000e-01 0.0000000000e+00 0.0000000000e+00 
          1.0000000000e+00 0.0000000000e+00 0.0000000000e+00 
          1.2500000000e+00 0.0000000000e+00 0.0000000000e+00 
          1.5000000000e+00 0.0000000000e+00 0.0000000000e+00 
          1.7500000000e+00 0.0000000000e+00 0.0000000000e+00 
          2.0000000000e+00 0.0000000000e+00 0.0000000000e+00 
          2.2500000000e+00 0.0000000000e+00 0.0000000000e+00 
          2.5000000000e+00 0.0000000000e+00 0.0000000000e+00 
          2.7500000000e+00 0.0000000000e+00 0.0000000000e+00 
          3.0000000000e+00 0.0000000000e+00 2.5000000000e-01 
          3.0000000000e+00 0.0000000000e+00 5.0000000000e-01 
          3.0000000000e+00 0.0000000000e+00 7.5000000000e-01 
          2.7500000000e+00 0.0000000000e+00 1.0000000000e+00 
          2.5000000000e+00 0.0000000000e+00 1.0000000000e+00 
          2.2500000000e+00 0.0000000000e+00 1.0000000000e+00 
          2.0000000000e+00 0.0000000000e+00 1.0000000000e+00 
          1.7500000000e+00 0.0000000000e+00 1.0000000000e+00 
          1.5000000000e+00 0.0000000000e+00 1.0000000000e+00 
          1.2500000000e+00 0.0000000000e+00 1.0000000000e+00 
          1.0000000000e+00 0.0000000000e+00 1.0000000000e+00 
          7.5000000000e-01 0.0000000000e+00 1.0000000000e+00 
          5.0000000000e-01 0.0000000000e+00 1.0000000000e+00 
          2.5000000000e-01 0.0000000000e+00 1.0000000000e+00 
          0.0000000000e+00 0.0000000000e+00 7.5000000000e-01 
          0.0000000000e+00 0.0000000000e+00 5.0000000000e-01 
          0.0000000000e+00 0.0000000000e+00 2.5000000000e-01 
          2.5000000000e-01 5.0000000000e-01 0.0000000000e+00 
          5.0000000000e-01 5.0000000000e-01 0.0000000000e+00 
          7.5000000000e-01 5.0000000000e-01 0.0000000000e+00 
          1.0000000000e+00 5.0000000000e-01 0.0000000000e+00 
          1.2500000000e+00 5.0000000000e-01 0.0000000000e+00 
          1.5000000000e+00 5.0000000000e-01 0.0000000000e+00 
          1.7500000000e+00 5.0000000000e-01 0.0000000000e+00 
          2.0000000000e+00 5.0000000000e-01 0.0000000000e+00 
          2.2500000000e+00 5.0000000000e-01 0.0000000000e+00 
          2.5000000000e+00 5.0000000000e-01 0.0000000000e+00 
          2.7500000000e+00 5.0000000000e-01 0.0000000000e+00 
          3.0000000000e+00 5.0000000000e-01 2.5000000000e-01 
          3.0000000000e+00 5.0000000000e-01 5.0000000000e-01 
          3.0000000000e+00 5.0000000000e-01 7.5000000000e-01 
          2.7500000000e+00 5.0000000000e-01 1.0000000000e+00 
          2.5000000000e+00 5.0000000000e-01 1.0000000000e+00 
          2.2500000000e+00 5.0000000000e-01 1.0000000000e+00 
          2.0000000000e+00 5.0000000000e-01 1.0000000000e+00 
          1.7500000000e+00 5.0000000000e-01 1.0000000000e+00 
          1.5000000000e+00 5.0000000000e-01 1.0000000000e+00 
          1.2500000000e+00 5.0000000000e-01 1.0000000000e+00 
          1.0000000000e+00 5.0000000000e-01 1.0000000000e+00 
          7.5000000000e-01 5.0000000000e-01 1.0000000000e+00 
          5.0000000000e-01 5.0000000000e-01 1.0000000000e+00 
          2.5000000000e-01 5.0000000000e-01 1.0000000000e+00 
          0.0000000000e+00 5.0000000000e-01 7.5000000000e-01 
          0.0000000000e+00 5.0000000000e-01 5.0000000000e-01 
          0.0000000000e+00 5.0000000000e-01 2.5000000000e-01 
          0.0000000000e+00 2.5000000000e-01 0.0000000000e+00 
          3.0000000000e+00 2.5000000000e-01 0.0000000000e+00 
          3.0000000000e+00 2.5000000000e-01 1.0000000000e+00 
          0.0000000000e+00 2.5000000000e-01 1.0000000000e+00 
          2.5000000000e-01 0.0000000000e+00 2.5000000000e-01 
          2.5000000000e-01 0.0000000000e+00 5.0000000000e-01 
          2.5000000000e-01 0.0000000000e+00 7.5000000000e-01 
          5.0000000000e-01 0.0000000000e+00 2.5000000000e-01 
          5.0000000000e-01 0.0000000000e+00 5.0000000000e-01 
          5.0000000000e-01 0.0000000000e+00 7.5000000000e-01 
          7.5000000000e-01 0.0000000000e+00 2.5000000000e-01 
          7.5000000000e-01 0.0000000000e+00 5.0000000000e-01 
          7.5000000000e-01 0.0000000000e+00 7.5000000000e-01 
          1.0000000000e+00 0.0000000000e+00 2.5000000000e-01 
          1.0000000000e+00 0.0000000000e+00 5.0000000000e-01 
          1.0000000000e+00 0.0000000000e+00 7.5000000000e-01 
          1.2500000000e+00 0.0000000000e+00 2.5000000000e-01 
          1.2500000000e+00 0.0000000000e+00 5.0000000000e-01 
          1.2500000000e+00 0.0000000000e+00 7.5000000000e-01 
          1.5000000000e+00 0.0000000000e+00 2.5000000000e-01 
          1.5000000000e+00 0.0000000000e+00 5.0000000000e-01 
          1.5000000000e+00 0.0000000000e+00 7.5000000000e-01 
          1.7500000000e+00 0.0000000000e+00 2.5000000000e-01 
          1.7500000000e+00 0.0000000000e+00 5.0000000000e-01 
          1.7500000000e+00 0.0000000000e+00 7.5000000000e-01 
          2.0000000000e+00 0.0000000000e+00 2.5000000000e-01 
          2.0000000000e+00 0.0000000000e+00 5.0000000000e-01 
          2.0000000000e+00 0.0000000000e+00 7.5000000000e-01 
          2.2500000000e+00 0.0000000000e+00 2.5000000000e-01 
          2.2500000000e+00 0.0000000000e+00 5.0000000000e-01 
          2.2500000000e+00 0.0000000000e+00 7.5000000000e-01 
          2.5000000000e+00 0.0000000000e+00 2.5000000000e-01 
          2.5000000000e+00 0.0000000000e+00 5.0000000000e-01 
          2.5000000000e+00 0.0000000000e+00 7.5000000000e-01 
          2.7500000000e+00 0.0000000000e+00 2.5000000000e-01 
          2.7500000000e+00 0.0000000000e+00 5.0000000000e-01 
          2.7500000000e+00 0.0000000000e+00 7.5000000000e-01 
          2.5000000000e-01 2.5000000000e-01 0.0000000000e+00 
          5.0000000000e-01 2.5000000000e-01 0.0000000000e+00 
          7.5000000000e-01 2.5000000000e-01 0.0000000000e+00 
          1.0000000000e+00 2.5000000000e-01 0.0000000000e+00 
          1.2500000000e+00 2.5000000000e-01 0.0000000000e+00 
          1.5000000000e+00 2.5000000000e-01 0.0000000000e+00 
          1.7500000000e+00 2.5000000000e-01 0.0000000000e+00 
          2.0000000000e+00 2.5000000000e-01 0.0000000000e+00 
          2.2500000000e+00 2.5000000000e-01 0.0000000000e+00 
          2.5000000000e+00 2.5000000000e-01 0.0000000000e+00 
          2.7500000000e+00 2.5000000000e-01 0.0000000000e+00 
          3.0000000000e+00 2.5000000000e-01 2.5000000000e-01 
          3.0000000000e+00 2.5000000000e-01 5.0000000000e-01 
          3.0000000000e+00 2.5000000000e-01 7.5000000000e-01 
          2.7500000000e+00 2.5000000000e-01 1.0000000000e+00 
          2.5000000000e+00 2.5000000000e-01 1.0000000000e+00 
          2.2500000000e+00 2.5000000000e-01 1.0000000000e+00 
          2.0000000000e+00 2.5000000000e-01 1.0000000000e+00 
          1.7500000000e+00 2.5000000000e-01 1.0000000000e+00 
          1.5000000000e+00 2.5000000000e-01 1.0000000000e+00 
          1.2500000000e+00 2.5000000000e-01 1.0000000000e+00 
          1.0000000000e+00 2.5000000000e-01 1.0000000000e+00 
          7.5000000000e-01 2.5000000000e-01 1.0000000000e+00 
          5.0000000000e-01 2.5000000000e-01 1.0000000000e+00 
          2.5000000000e-01 2.5000000000e-01 1.0000000000e+00 
          0.0000000000e+00 2.5000000000e-01 7.5000000000e-01 
          0.0000000000e+00 2.5000000000e-01 5.0000000000e-01 
          0.0000000000e+00 2.5000000000e-01 2.5000000000e-01 
          2.5000000000e-01 5.0000000000e-01 2.5000000000e-01 
          2.5000000000e-01 5.0000000000e-01 5.0000000000e-01 
          2.5000000000e-01 5.0000000000e-01 7.5000000000e-01 
          5.0000000000e-01 5.0000000000e-01 2.5000000000e-01 
          5.0000000000e-01 5.0000000000e-01 5.0000000000e-01 
          5.0000000000e-01 5.0000000000e-01 7.5000000000e-01 
          7.5000000000e-01 5.0000000000e-01 2.5000000000e-01 
          7.5000000000e-01 5.0000000000e-01 5.0000000000e-01 
          7.5000000000e-01 5.0000000000e-01 7.5000000000e-01 
          1.0000000000e+00 5.0000000000e-01 2.5000000000e-01 
          1.0000000000e+00 5.0000000000e-01 5.0000000000e-01 
          1.0000000000e+00 5.0000000000e-01 7.5000000000e-01 
          1.2500000000e+00 5.0000000000e-01 2.5000000000e-01 
          1.2500000000e+00 5.0000000000e-01 5.0000000000e-01 
          1.2500000000e+00 5.0000000000e-01 7.5000000000e-01 
          1.5000000000e+00 5.0000000000e-01 2.5000000000e-01 
          1.5000000000e+00 5.0000000000e-01 5.0000000000e-01 
          1.5000000000e+00 5.0000000000e-01 7.5000000000e-01 
          1.7500000000e+00 5.0000000000e-01 2.5000000000e-01 
          1.7500000000e+00 5.0000000000e-01 5.0000000000e-01 
          1.7500000000e+00 5.0000000000e-01 7.5000000000e-01 
          2.0000000000e+00 5.0000000000e-01 2.5000000000e-01 
          2.0000000000e+00 5.0000000000e-01 5.0000000000e-01 
          2.0000000000e+00 5.0000000000e-01 7.5000000000e-01 
          2.2500000000e+00 5.0000000000e-01 2.5000000000e-01 
          2.2500000000e+00 5.0000000000e-01 5.0000000000e-01 
          2.2500000000e+00 5.0000000000e-01 7.5000000000e-01 
          2.5000000000e+00 5.0000000000e-01 2.5000000000e-01 
          2.5000000000e+00 5.0000000000e-01 5.0000000000e-01 
          2.5000000000e+00 5.0000000000e-01 7.5000000000e-01 
          2.7500000000e+00 5.0000000000e-01 2.5000000000e-01 
          2.7500000000e+00 5.0000000000e-01 5.0000000000e-01 
          2.7500000000e+00 5.0000000000e-01 7.5000000000e-01 
          2.5000000000e-01 2.5000000000e-01 2.5000000000e-01 
          2.5000000000e-01 2.5000000000e-01 5.0000000000e-01 
          2.5000000000e-01 2.5000000000e-01 7.5000000000e-01 
          5.0000000000e-01 2.5000000000e-01 2.5000000000e-01 
          5.0000000000e-01 2.5000000000e-01 5.0000000000e-01 
          5.0000000000e-01 2.5000000000e-01 7.5000000000e-01 
          7.5000000000e-01 2.5000000000e-01 2.5000000000e-01 
          7.5000000000e-01 2.5000000000e-01 5.0000000000e-01 
          7.5000000000e-01 2.5000000000e-01 7.5000000000e-01 
          1.0000000000e+00 2.5000000000e-01 2.5000000000e-01 
          1.0000000000e+00 2.5000000000e-01 5.0000000000e-01 
          1.0000000000e+00 2.5000000000e-01 7.5000000000e-01 
          1.2500000000e+00 2.5000000000e-01 2.5000000000e-01 
          1.2500000000e+00 2.5000000000e-01 5.0000000000e-01 
          1.2500000000e+00 2.5000000000e-01 7.5000000000e-01 
          1.5000000000e+00 2.5000000000e-01 2.5000000000e-01 
          1.5000000000e+00 2.5000000000e-01 5.0000000000e-01 
          1.5000000000e+00 2.5000000000e-01 7.5000000000e-01 
          1.7500000000e+00 2.5000000000e-01 2.5000000000e-01 
          1.7500000000e+00 2.5000000000e-01 5.0000000000e-01 
          1.7500000000e+00 2.5000000000e-01 7.5000000000e-01 
          2.0000000000e+00 2.5000000000e-01 2.5000000000e-01 
          2.0000000000e+00 2.5000000000e-01 5.0000000000e-01 
          2.0000000000e+00 2.5000000000e-01 7.5000000000e-01 
          2.2500000000e+00 2.5000000000e-01 2.5000000000e-01 
          2.2500000000e+00 2.5000000000e-01 5.0000000000e-01 
          2.2500000000e+00 2.5000000000e-01 7.5000000000e-01 
          2.5000000000e+00 2.5000000000e-01 2.5000000000e-01 
          2.5000000000e+00 2.5000000000e-01 5.0000000000e-01 
          2.5000000000e+00 2.5000000000e-01 7.5000000000e-01 
          2.7500000000e+00 2.5000000000e-01 2.5000000000e-01 
          2.7500000000e+00 2.5000000000e-01 5.0000000000e-01 
          2.7500000000e+00 2.5000000000e-01 7.5000000000e-01 
        </DataArray>
      </Points>
      <Cells>
        <DataArray type="Int32" Name="connectivity" format="ascii">
          68 8 0 35 162 101 64 128 
          162 101 64 128 129 36 4 63 
          69 68 35 34 163 162 128 127 
          163 162 128 127 130 129 63 62 
          70 69 34 33 164 163 127 126 
          164 163 127 126 131 130 62 61 
          32 70 33 3 125 164 126 67 
          125 164 126 67 60 131 61 7 
          71 9 8 68 165 102 101 162 
          165 102 101 162 132 37 36 129 
          72 71 68 69 166 165 162 163 
          166 165 162 163 133 132 129 130 
          73 72 69 70 167 166 163 164 
          167 166 163 164 134 133 130 131 
          31 73 70 32 124 167 164 125 
          124 167 164 125 59 134 131 60 
          74 10 9 71 168 103 102 165 
          168 103 102 165 135 38 37 132 
          75 74 71 72 169 168 165 166 
          169 168 165 166 136 135 132 133 
          76 75 72 73 170 169 166 167 
          170 169 166 167 137 136 133 134 
          30 76 73 31 123 170 167 124 
          123 170 167 124 58 137 134 59 
          77 11 10 74 171 104 103 168 
          171 104 103 168 138 39 38 135 
          78 77 74 75 172 171 168 169 
          172 171 168 169 139 138 135 136 
          79 78 75 76 173 172 169 170 
          173 172 169 170 140 139 136 137 
          29 79 76 30 122 173 170 123 
          122 173 170 123 57 140 137 58 
          80 12 11 77 174 105 104 171 
          174 105 104 171 141 40 39 138 
          81 80 77 78 175 174 171 172 
          175 174 171 172 142 141 138 139 
          82 81 78 79 176 175 172 173 
          176 175 172 173 143 142 139 140 
          28 82 79 29 121 176 173 122 
          121 176 173 122 56 143 140 57 
          83 13 12 80 177 106 105 174 
          177 106 105 174 144 41 40 141 
          84 83 80 81 178 177 174 175 
          178 177 174 175 145 144 141 142 
          85 84 81 82 179 178 175 176 
          179 178 175 176 146 145 142 143 
          27 85 82 28 120 179 176 121 
          120 179 176 121 55 146 143 56 
          86 14 13 83 180 107 106 177 
          180 107 106 177 147 42 41 144 
          87 86 83 84 181 180 177 178 
          181 180 177 178 148 147 144 145 
          88 87 84 85 182 181 178 179 
          182 181 178 179 149 148 145 146 
          26 88 85 27 119 182 179 120 
          119 182 179 120 54 149 146 55 
          89 15 14 86 183 108 107 180 
          183 108 107 180 150 43 42 147 
          90 89 86 87 184 183 180 181 
          184 183 180 181 151 150 147 148 
          91 90 87 88 185 184 181 182 
          185 184 181 182 152 151 148 149 
          25 91 88 26 118 185 182 119 
          118 185 182 119 53 152 149 54 
          92 16 15 89 186 109 108 183 
          186 109 108 183 153 44 43 150 
          93 92 89 90 187 186 183 184 
          187 186 183 184 154 153 150 151 
          94 93 90 91 188 187 184 185 
          188 187 184 185 155 154 151 152 
          24 94 91 25 117 188 185 118 
          117 188 185 118 52 155 152 53 
          95 17 16 92 189 110 109 186 
          189 110 109 186 156 45 44 153 
          96 95 92 93 190 189 186 187 
          190 189 186 187 157 156 153 154 
          97 96 93 94 191 190 187 188 
          191 190 187 188 158 157 154 155 
          23 97 94 24 116 191 188 117 
          116 191 188 117 51 158 155 52 
          98 18 17 95 192 111 110 189 
          192 111 110 189 159 46 45 156 
          99 98 95 96 193 192 189 190 
          193 192 189 190 160 159 156 157 
          100 99 96 97 194 193 190 191 
          194 193 190 191 161 160 157 158 
          22 100 97 23 115 194 191 116 
          115 194 191 116 50 161 158 51 
          19 1 18 98 112 65 111 192 
          112 65 111 192 47 5 46 159 
          20 19 98 99 113 112 192 193 
          113 112 192 193 48 47 159 160 
          21 20 99 100 114 113 193 194 
          114 113 193 194 49 48 160 161 
          2 21 100 22 66 114 194 115 
          66 114 194 115 6 49 161 50 
        </DataArray>
        <DataArray type="Int32" Name="offsets" format="ascii">
          8
          16
          24
          32
          40
          48
          56
          64
          72
          80
          88
          96
          104
          112
          120
          128
          136
          144
          152
          160
          168
          176
          184
          192
          200
          208
          216
          224
          232
          240
          248
          256
          264
          272
          280
          288
          296
          304
          312
          320
          328
          336
          344
          352
          360
          368
          376
          384
          392
          400
          408
          416
          424
          432
          440
          448
          456
          464
          472
          480
          488
          496
          504
          512
          520
          528
          536
          544
          552
          560
          568
          576
          584
          592
          600
          608
          616
          624
          632
          640
          648
          656
          664
          672
          680
          688
          696
          704
          712
          720
          728
          736
          744
          752
          760
          768
        </DataArray>
        <DataArray type="Int32" Name="types" format="ascii">
          12
          12
          12
          12
          12
          12
          12
          12
          12
          12
          12
          12
          12
          12
          12
          12
          12
          12
          12
          12
          12
          12
          12
          12
          12
          12
          12
          12
          12
          12
          12
          12
          12
          12
          12
          12
          12
          12
          12
          12
          12
          12
          12
          12
          12
          12
          12
          12
          12
          12
          12
          12
          12
          12
          12
          12
          12
          12
          12
          12
          12
          12
          12
          12
          12
          12
          12
          12
          12
          12
          12
          12
          12
          12
          12
          12
          12
          12
          12
          12
          12
          12
          12
          12
          12
          12
          12
          12
          12
          12
          12
          12
          12
          12
          12
          12
        </DataArray>
      </Cells>
      <PointData>
        <DataArray type="Int32" Name="NodeTag" format="ascii">
          1
          2
          3
          4
          5
          6
          7
          8
          9
          10
          11
          12
          13
          14
          15
          16
          17
          18
          19
          20
          21
          22
          23
          24
          25
          26
          27
          28
          29
          30
          31
          32
          33
          34
          35
          36
          37
          38
          39
          40
          41
          42
          43
          44
          45
          46
          47
          48
          49
          50
          51
          52
          53
          54
          55
          56
          57
          58
          59
          60
          61
          62
          63
          64
          65
          66
          67
          68
          69
          70
          71
          72
          73
          74
          75
          76
          77
          78
          79
          80
          81
          82
          83
          84
          85
          86
          87
          88
          89
          90
          91
          92
          93
          94
          95
          96
          97
          98
          99
          100
          101
          102
          103
          104
          105
          106
          107
          108
          109
          110
          111
          112
          113
          114
          115
          116
          117
          118
          119
          120
          121
          122
          123
          124
          125
          126
          127
          128
          129
          130
          131
          132
          133
          134
          135
          136
          137
          138
          139
          140
          141
          142
          143
          144
          145
          146
          147
          148
          149
          150
          151
          152
          153
          154
          155
          156
          157
          158
          159
          160
          161
          162
          163
          164
          165
          166
          167
          168
          169
          170
          171
          172
          173
          174
          175
          176
          177
          178
          179
          180
          181
          182
          183
          184
          185
          186
          187
          188
          189
          190
          191
          192
          193
          194
          195
        </DataArray>
        <DataArray type="Float32" Name="AllDisplacement" NumberOfComponents="3" format="ascii">
          0.0000000000e+00 0.0000000000e+00 0.0000000000e+00 
          -4.8260677054e-07 -1.3340704660e-05 5.4448859019e-06 
          -3.1728042480e-07 9.3573475864e-06 6.1893197615e-06 
          0.0000000000e+00 0.0000000000e+00 0.0000000000e+00 
          0.0000000000e+00 0.0000000000e+00 0.0000000000e+00 
          4.8260677054e-07 -1.3340704660e-05 -5.4448859019e-06 
          3.1728042480e-07 9.3573475864e-06 -6.1893197615e-06 
          0.0000000000e+00 0.0000000000e+00 0.0000000000e+00 
          -4.9529910640e-07 -1.2565287487e-06 6.0322027144e-07 
          -7.1805047754e-07 -2.7717319945e-06 1.3453936863e-06 
          -7.6876166557e-07 -4.3411946901e-06 2.0690924571e-06 
          -7.5228522447e-07 -5.8364695017e-06 2.7557936783e-06 
          -7.1500316279e-07 -7.2199953310e-06 3.3773732137e-06 
          -6.7181011678e-07 -8.4775041274e-06 3.9215914009e-06 
          -6.2716864803e-07 -9.6047651983e-06 4.3840064594e-06 
          -5.8274141604e-07 -1.0600719106e-05 4.7633674134e-06 
          -5.4032420581e-07 -1.1465985171e-05 5.0599504857e-06 
          -5.0464124066e-07 -1.2203421622e-05 5.2748720908e-06 
          -4.8525297240e-07 -1.2821173321e-05 5.4056991964e-06 
          -4.6768211781e-07 -7.8937403808e-06 5.4757363528e-06 
          -3.9994384784e-07 -2.3638923056e-06 5.5992334765e-06 
          -3.3220450295e-07 3.3520614965e-06 5.8479507569e-06 
          -2.4241282176e-07 9.6015876401e-06 6.1501275900e-06 
          -1.5080443207e-07 9.6753717081e-06 6.0192792705e-06 
          -4.2904394699e-08 9.5572174843e-06 5.8042992579e-06 
          7.1721594427e-08 9.2389311234e-06 5.5075624389e-06 
          1.8833567881e-07 8.7175247316e-06 5.1277993276e-06 
          3.0510712705e-07 7.9920442418e-06 4.6643293573e-06 
          4.2030114263e-07 7.0626545589e-06 4.1173557521e-06 
          5.2929305657e-07 5.9313200935e-06 3.4885370273e-06 
          6.1653989353e-07 4.6058815642e-06 2.7837486499e-06 
          6.3008582768e-07 3.1086806909e-06 2.0114208368e-06 
          4.4178909307e-07 1.5272851897e-06 1.1573566843e-06 
          0.0000000000e+00 0.0000000000e+00 0.0000000000e+00 
          0.0000000000e+00 0.0000000000e+00 0.0000000000e+00 
          0.0000000000e+00 0.0000000000e+00 0.0000000000e+00 
          4.9529910640e-07 -1.2565287487e-06 -6.0322027144e-07 
          7.1805047754e-07 -2.7717319945e-06 -1.3453936863e-06 
          7.6876166557e-07 -4.3411946901e-06 -2.0690924571e-06 
          7.5228522447e-07 -5.8364695017e-06 -2.7557936783e-06 
          7.1500316279e-07 -7.2199953310e-06 -3.3773732137e-06 
          6.7181011678e-07 -8.4775041274e-06 -3.9215914009e-06 
          6.2716864803e-07 -9.6047651983e-06 -4.3840064594e-06 
          5.8274141604e-07 -1.0600719106e-05 -4.7633674134e-06 
          5.4032420581e-07 -1.1465985171e-05 -5.0599504857e-06 
          5.0464124066e-07 -1.2203421622e-05 -5.2748720908e-06 
          4.8525297240e-07 -1.2821173321e-05 -5.4056991964e-06 
          4.6768211781e-07 -7.8937403808e-06 -5.4757363528e-06 
          3.9994384784e-07 -2.3638923056e-06 -5.5992334765e-06 
          3.3220450295e-07 3.3520614965e-06 -5.8479507569e-06 
          2.4241282176e-07 9.6015876401e-06 -6.1501275900e-06 
          1.5080443207e-07 9.6753717081e-06 -6.0192792705e-06 
          4.2904394699e-08 9.5572174843e-06 -5.8042992579e-06 
          -7.1721594428e-08 9.2389311234e-06 -5.5075624389e-06 
          -1.8833567881e-07 8.7175247316e-06 -5.1277993276e-06 
          -3.0510712705e-07 7.9920442418e-06 -4.6643293573e-06 
          -4.2030114263e-07 7.0626545589e-06 -4.1173557521e-06 
          -5.2929305657e-07 5.9313200935e-06 -3.4885370273e-06 
          -6.1653989353e-07 4.6058815642e-06 -2.7837486499e-06 
          -6.3008582768e-07 3.1086806909e-06 -2.0114208368e-06 
          -4.4178909307e-07 1.5272851897e-06 -1.1573566843e-06 
          0.0000000000e+00 0.0000000000e+00 0.0000000000e+00 
          0.0000000000e+00 0.0000000000e+00 0.0000000000e+00 
          0.0000000000e+00 0.0000000000e+00 0.0000000000e+00 
          0.0000000000e+00 0.0000000000e+00 0.0000000000e+00 
          8.5465049741e-20 -1.3342894127e-05 3.7017477167e-19 
          -7.4954839761e-20 9.3220372163e-06 3.7076292365e-19 
          0.0000000000e+00 0.0000000000e+00 0.0000000000e+00 
          -4.7856029656e-07 -6.5216074043e-07 6.9902416707e-07 
          -2.4864379288e-08 -7.1250116928e-08 7.9534373439e-07 
          4.7629841446e-07 5.8865044194e-07 9.1481113056e-07 
          -6.6326524721e-07 -1.4544492176e-06 1.3828537142e-06 
          -4.7953539047e-08 -1.3903511099e-07 1.4847645594e-06 
          5.8282979620e-07 1.3185098333e-06 1.7013323642e-06 
          -6.9982889192e-07 -2.2923806235e-06 2.0973915540e-06 
          -7.9408675252e-08 -2.1521966530e-07 2.2106103141e-06 
          5.4902688993e-07 2.0318162656e-06 2.4474879276e-06 
          -6.8765467760e-07 -3.0976635272e-06 2.7816343979e-06 
          -1.1280129289e-07 -3.1546949714e-07 2.9003384934e-06 
          4.6520080196e-07 2.6466650978e-06 3.1453282091e-06 
          -6.5792564853e-07 -3.8584403966e-06 3.4028129619e-06 
          -1.4782329483e-07 -4.4732971974e-07 3.5238420932e-06 
          3.6347016181e-07 3.1475726225e-06 3.7717593329e-06 
          -6.2283743261e-07 -4.5713943346e-06 3.9470578464e-06 
          -1.8352453404e-07 -6.1358885598e-07 4.0690441221e-06 
          2.5623641114e-07 3.5294326634e-06 4.3180327867e-06 
          -5.8635836520e-07 -5.2361880921e-06 4.4095670460e-06 
          -2.1948248076e-07 -8.1532037549e-07 4.5319401181e-06 
          1.4756420851e-07 3.7913167193e-06 4.7813125202e-06 
          -5.5000761671e-07 -5.8528932496e-06 4.7891068951e-06 
          -2.5553527813e-07 -1.0529164018e-06 4.9116640857e-06 
          3.9002483278e-08 3.9330404286e-06 5.1611467093e-06 
          -5.1524215545e-07 -6.4219677717e-06 5.0862003435e-06 
          -2.9162401198e-07 -1.3265294225e-06 5.2089569169e-06 
          -6.7980880551e-08 3.9549698082e-06 5.4583525737e-06 
          -4.8496560597e-07 -6.9452318219e-06 5.3028374375e-06 
          -3.2772648812e-07 -1.6362173210e-06 5.4261862163e-06 
          -1.7047798924e-07 3.8588887101e-06 5.6750323919e-06 
          -4.6636657884e-07 -7.4292129922e-06 5.4398983644e-06 
          -3.6383417191e-07 -1.9820022332e-06 5.5676357446e-06 
          -2.6129855327e-07 3.6513111954e-06 5.8121089134e-06 
          1.5736371229e-20 -1.2078477802e-06 9.1795203545e-21 
          2.9467341310e-20 -2.7638720597e-06 2.3278149811e-20 
          4.1474281942e-20 -4.3418273818e-06 4.3480562395e-20 
          5.1874901530e-20 -5.8419259337e-06 6.9072851930e-20 
          5.9683439527e-20 -7.2265582414e-06 9.8317339024e-20 
          6.8092342905e-20 -8.4844465820e-06 1.3286037277e-19 
          7.3843553560e-20 -9.6117681645e-06 1.6879926899e-19 
          7.8265932399e-20 -1.0607630862e-05 2.0844683065e-19 
          8.0834732516e-20 -1.1472517204e-05 2.4833126938e-19 
          8.1629627584e-20 -1.2208812224e-05 2.8963587690e-19 
          8.2495502310e-20 -1.2824882399e-05 3.3144494245e-19 
          4.2179052546e-20 -7.9015869049e-06 3.7019543528e-19 
          3.1555684543e-21 -2.3826418804e-06 3.7055018534e-19 
          -3.6186173462e-20 3.3224085923e-06 3.7103778113e-19 
          -7.5060464702e-20 9.5677969658e-06 3.3156081499e-19 
          -7.5845338837e-20 9.6432628414e-06 2.9005679087e-19 
          -7.5548960916e-20 9.5262509310e-06 2.4891369564e-19 
          -7.3414731771e-20 9.2083463640e-06 2.0713064530e-19 
          -6.9939300650e-20 8.6870376197e-06 1.6765622538e-19 
          -6.4585226979e-20 7.9615089459e-06 1.3080611402e-19 
          -5.7571181524e-20 7.0317997761e-06 9.8556415549e-20 
          -4.9493602571e-20 5.8994097775e-06 6.9204017445e-20 
          -4.0133450772e-20 4.5696665479e-06 4.3371003714e-20 
          -2.8900848925e-20 3.0623421432e-06 2.3139443341e-20 
          -1.5152723433e-20 1.4418044965e-06 9.0977660402e-21 