<?xml version="1.0"?>
<VTKFile type="UnstructuredGrid" version="1.0" byte_order="LittleEndian" compressor="vtkZLibDataCompressor">
  <UnstructuredGrid>
    <Piece NumberOfPoints="82" NumberOfCells="40">
      <Points>
        <DataArray type="Float32" Name="Points" NumberOfComponents="3" format="ascii">
          1.0000000000e+01 0.0000000000e+00 1.0000000000e+00 
          0.0000000000e+00 0.0000000000e+00 1.0000000000e+00 
          1.0000000000e+01 2.0000000000e-01 1.0000000000e+00 
          0.0000000000e+00 2.0000000000e-01 1.0000000000e+00 
          9.7500000000e+00 0.0000000000e+00 1.0000000000e+00 
          9.5000000000e+00 0.0000000000e+00 1.0000000000e+00 
          9.2500000000e+00 0.0000000000e+00 1.0000000000e+00 
          9.0000000000e+00 0.0000000000e+00 1.0000000000e+00 
          8.7500000000e+00 0.0000000000e+00 1.0000000000e+00 
          8.5000000000e+00 0.0000000000e+00 1.0000000000e+00 
          8.2500000000e+00 0.0000000000e+00 1.0000000000e+00 
          8.0000000000e+00 0.0000000000e+00 1.0000000000e+00 
          7.7500000000e+00 0.0000000000e+00 1.0000000000e+00 
          7.5000000000e+00 0.0000000000e+00 1.0000000000e+00 
          7.2500000000e+00 0.0000000000e+00 1.0000000000e+00 
          7.0000000000e+00 0.0000000000e+00 1.0000000000e+00 
          6.7500000000e+00 0.0000000000e+00 1.0000000000e+00 
          6.5000000000e+00 0.0000000000e+00 1.0000000000e+00 
          6.2500000000e+00 0.0000000000e+00 1.0000000000e+00 
          6.0000000000e+00 0.0000000000e+00 1.0000000000e+00 
          5.7500000000e+00 0.0000000000e+00 1.0000000000e+00 
          5.5000000000e+00 0.0000000000e+00 1.0000000000e+00 
          5.2500000000e+00 0.0000000000e+00 1.0000000000e+00 
          5.0000000000e+00 0.0000000000e+00 1.0000000000e+00 
          4.7500000000e+00 0.0000000000e+00 1.0000000000e+00 
          4.5000000000e+00 0.0000000000e+00 1.0000000000e+00 
          4.2500000000e+00 0.0000000000e+00 1.0000000000e+00 
          4.0000000000e+00 0.0000000000e+00 1.0000000000e+00 
          3.7500000000e+00 0.0000000000e+00 1.0000000000e+00 
          3.5000000000e+00 0.0000000000e+00 1.0000000000e+00 
          3.2500000000e+00 0.0000000000e+00 1.0000000000e+00 
          3.0000000000e+00 0.0000000000e+00 1.0000000000e+00 
          2.7500000000e+00 0.0000000000e+00 1.0000000000e+00 
          2.5000000000e+00 0.0000000000e+00 1.0000000000e+00 
          2.2500000000e+00 0.0000000000e+00 1.0000000000e+00 
          2.0000000000e+00 0.0000000000e+00 1.0000000000e+00 
          1.7500000000e+00 0.0000000000e+00 1.0000000000e+00 
          1.5000000000e+00 0.0000000000e+00 1.0000000000e+00 
          1.2500000000e+00 0.0000000000e+00 1.0000000000e+00 
          1.0000000000e+00 0.0000000000e+00 1.0000000000e+00 
          7.5000000000e-01 0.0000000000e+00 1.0000000000e+00 
          5.0000000000e-01 0.0000000000e+00 1.0000000000e+00 
          2.5000000000e-01 0.0000000000e+00 1.0000000000e+00 
          9.7500000000e+00 2.0000000000e-01 1.0000000000e+00 
          9.5000000000e+00 2.0000000000e-01 1.0000000000e+00 
          9.2500000000e+00 2.0000000000e-01 1.0000000000e+00 
          9.0000000000e+00 2.0000000000e-01 1.0000000000e+00 
          8.7500000000e+00 2.0000000000e-01 1.0000000000e+00 
          8.5000000000e+00 2.0000000000e-01 1.0000000000e+00 
          8.2500000000e+00 2.0000000000e-01 1.0000000000e+00 
          8.0000000000e+00 2.0000000000e-01 1.0000000000e+00 
          7.7500000000e+00 2.0000000000e-01 1.0000000000e+00 
          7.5000000000e+00 2.0000000000e-01 1.0000000000e+00 
          7.2500000000e+00 2.0000000000e-01 1.0000000000e+00 
          7.0000000000e+00 2.0000000000e-01 1.0000000000e+00 
          6.7500000000e+00 2.0000000000e-01 1.0000000000e+00 
          6.5000000000e+00 2.0000000000e-01 1.0000000000e+00 
          6.2500000000e+00 2.0000000000e-01 1.0000000000e+00 
          6.0000000000e+00 2.0000000000e-01 1.0000000000e+00 
          5.7500000000e+00 2.0000000000e-01 1.0000000000e+00 
          5.5000000000e+00 2.0000000000e-01 1.0000000000e+00 
          5.2500000000e+00 2.0000000000e-01 1.0000000000e+00 
          5.0000000000e+00 2.0000000000e-01 1.0000000000e+00 
          4.7500000000e+00 2.0000000000e-01 1.0000000000e+00 
          4.5000000000e+00 2.0000000000e-01 1.0000000000e+00 
          4.2500000000e+00 2.0000000000e-01 1.0000000000e+00 
          4.0000000000e+00 2.0000000000e-01 1.0000000000e+00 
          3.7500000000e+00 2.0000000000e-01 1.0000000000e+00 
          3.5000000000e+00 2.0000000000e-01 1.0000000000e+00 
          3.2500000000e+00 2.0000000000e-01 1.0000000000e+00 
          3.0000000000e+00 2.0000000000e-01 1.0000000000e+00 
          2.7500000000e+00 2.0000000000e-01 1.0000000000e+00 
          2.5000000000e+00 2.0000000000e-01 1.0000000000e+00 
          2.2500000000e+00 2.0000000000e-01 1.0000000000e+00 
          2.0000000000e+00 2.0000000000e-01 1.0000000000e+00 
          1.7500000000e+00 2.0000000000e-01 1.0000000000e+00 
          1.5000000000e+00 2.0000000000e-01 1.0000000000e+00 
          1.2500000000e+00 2.0000000000e-01 1.0000000000e+00 
          1.0000000000e+00 2.0000000000e-01 1.0000000000e+00 
          7.5000000000e-01 2.0000000000e-01 1.0000000000e+00 
          5.0000000000e-01 2.0000000000e-01 1.0000000000e+00 
          2.5000000000e-01 2.0000000000e-01 1.0000000000e+00 
        </DataArray>
      </Points>
      <Cells>
        <DataArray type="Int32" Name="connectivity" format="ascii">
          42 81 1 3 
          41 80 42 81 
          40 79 41 80 
          39 78 40 79 
          38 77 39 78 
          37 76 38 77 
          36 75 37 76 
          35 74 36 75 
          34 73 35 74 
          33 72 34 73 
          32 71 33 72 
          31 70 32 71 
          30 69 31 70 
          29 68 30 69 
          28 67 29 68 
          27 66 28 67 
          26 65 27 66 
          25 64 26 65 
          24 63 25 64 
          23 62 24 63 
          22 61 23 62 
          21 60 22 61 
          20 59 21 60 
          19 58 20 59 
          18 57 19 58 
          17 56 18 57 
          16 55 17 56 
          15 54 16 55 
          14 53 15 54 
          13 52 14 53 
          12 51 13 52 
          11 50 12 51 
          10 49 11 50 
          9 48 10 49 
          8 47 9 48 
          7 46 8 47 
          6 45 7 46 
          5 44 6 45 
          4 43 5 44 
          0 2 4 43 
        </DataArray>
        <DataArray type="Int32" Name="offsets" format="ascii">
          4
          8
          12
          16
          20
          24
          28
          32
          36
          40
          44
          48
          52
          56
          60
          64
          68
          72
          76
          80
          84
          88
          92
          96
          100
          104
          108
          112
          116
          120
          124
          128
          132
          136
          140
          144
          148
          152
          156
          160
        </DataArray>
        <DataArray type="Int32" Name="types" format="ascii">
          9
          9
          9
          9
          9
          9
          9
          9
          9
          9
          9
          9
          9
          9
          9
          9
          9
          9
          9
          9
          9
          9
          9
          9
          9
          9
          9
          9
          9
          9
          9
          9
          9
          9
          9
          9
          9
          9
          9
          9
        </DataArray>
      </Cells>
      <PointData>
        <DataArray type="Int32" Name="NodeTag" format="ascii">
          3
          4
          7
          8
          51
          52
          53
          54
          55
          56
          57
          58
          59
          60
          61
          62
          63
          64
          65
          66
          67
          68
          69
          70
          71
          72
          73
          74
          75
          76
          77
          78
          79
          80
          81
          82
          83
          84
          85
          86
          87
          88
          89
          135
          136
          137
          138
          139
          140
          141
          142
          143
          144
          145
          146
          147
          148
          149
          150
          151
          152
          153
          154
          155
          156
          157
          158
          159
          160
          161
          162
          163
          164
          165
          166
          167
          168
          169
          170
          171
          172
          173
        </DataArray>
        <DataArray type="Float32" Name="AllDisplacement" NumberOfComponents="3" format="ascii">
          -4.0587609773e-05 2.2537148898e-08 5.4229852166e-04 
          0.0000000000e+00 0.0000000000e+00 0.0000000000e+00 
          -4.0587609773e-05 -2.2537131673e-08 5.4229852166e-04 
          0.0000000000e+00 0.0000000000e+00 0.0000000000e+00 
          -4.0483228686e-05 -1.1429508400e-08 5.2161790781e-04 
          -4.0346732540e-05 -1.1860730093e-08 5.0133593835e-04 
          -4.0198617231e-05 -1.3069878234e-08 4.8112933013e-04 
          -4.0016391269e-05 -1.6446099763e-08 4.6100491387e-04 
          -3.9788286433e-05 -2.0248345969e-08 4.4097910841e-04 
          -3.9510476970e-05 -2.4284756973e-08 4.2107805832e-04 
          -3.9181944836e-05 -2.8350724865e-08 4.0132798681e-04 
          -3.8802630054e-05 -3.2415926247e-08 3.8175477385e-04 
          -3.8372629782e-05 -3.6473503759e-08 3.6238390837e-04 
          -3.7892009716e-05 -4.0527474878e-08 3.4324072307e-04 
          -3.7360794321e-05 -4.4580244435e-08 3.2435050840e-04 
          -3.6778988942e-05 -4.8632837170e-08 3.0573855235e-04 
          -3.6146593387e-05 -5.2685480668e-08 2.8743014694e-04 
          -3.5463606841e-05 -5.6738178129e-08 2.6945058683e-04 
          -3.4730028863e-05 -6.0790899405e-08 2.5182516767e-04 
          -3.3945859308e-05 -6.4843627233e-08 2.3457918532e-04 
          -3.3111098152e-05 -6.8896355640e-08 2.1773793563e-04 
          -3.2225745399e-05 -7.2949083512e-08 2.0132671441e-04 
          -3.1289801057e-05 -7.7001810996e-08 1.8537081747e-04 
          -3.0303265129e-05 -8.1054538325e-08 1.6989554060e-04 
          -2.9266137614e-05 -8.5107265612e-08 1.5492617959e-04 
          -2.8178418513e-05 -8.9159992891e-08 1.4048803024e-04 
          -2.7040107826e-05 -9.3212720167e-08 1.2660638833e-04 
          -2.5851205553e-05 -9.7265447433e-08 1.1330654966e-04 
          -2.4611711694e-05 -1.0131817470e-07 1.0061381003e-04 
          -2.3321626249e-05 -1.0537090189e-07 8.8553465217e-05 
          -2.1980949218e-05 -1.0942362943e-07 7.7150811027e-05 
          -2.0589680601e-05 -1.1347635521e-07 6.6431143249e-05 
          -1.9147820396e-05 -1.1752908944e-07 5.6419757677e-05 
          -1.7655368613e-05 -1.2158178314e-07 4.7141950096e-05 
          -1.6112325197e-05 -1.2563467364e-07 3.8623016345e-05 
          -1.4518690432e-05 -1.2968659864e-07 3.0888252054e-05 
          -1.2874463328e-05 -1.3374308573e-07 2.3962954026e-05 
          -1.1179650373e-05 -1.3777748269e-07 1.7872410577e-05 
          -9.4342103404e-06 -1.4192354746e-07 1.2641936928e-05 
          -7.6382255936e-06 -1.4555566881e-07 8.2967172340e-06 
          -5.7910279447e-06 -1.5161222058e-07 4.8634444962e-06 
          -3.8998435063e-06 -1.4441875550e-07 2.3649484088e-06 
          -1.9617319107e-06 -1.9583354899e-07 8.3067751922e-07 
          -4.0483228687e-05 1.1429525000e-08 5.2161790781e-04 
          -4.0346732541e-05 1.1860746070e-08 5.0133593835e-04 
          -4.0198617231e-05 1.3069893588e-08 4.8112933013e-04 
          -4.0016391269e-05 1.6446114493e-08 4.6100491387e-04 
          -3.9788286434e-05 2.0248360075e-08 4.4097910841e-04 
          -3.9510476970e-05 2.4284770457e-08 4.2107805832e-04 
          -3.9181944836e-05 2.8350737730e-08 4.0132798681e-04 
          -3.8802630055e-05 3.2415938496e-08 3.8175477385e-04 
          -3.8372629782e-05 3.6473515399e-08 3.6238390837e-04 
          -3.7892009716e-05 4.0527485915e-08 3.4324072307e-04 
          -3.7360794321e-05 4.4580254872e-08 3.2435050840e-04 
          -3.6778988942e-05 4.8632847015e-08 3.0573855235e-04 
          -3.6146593388e-05 5.2685489929e-08 2.8743014694e-04 
          -3.5463606842e-05 5.6738186815e-08 2.6945058683e-04 
          -3.4730028863e-05 6.0790907526e-08 2.5182516767e-04 
          -3.3945859308e-05 6.4843634802e-08 2.3457918532e-04 
          -3.3111098152e-05 6.8896362668e-08 2.1773793563e-04 
          -3.2225745400e-05 7.2949090010e-08 2.0132671441e-04 
          -3.1289801058e-05 7.7001816979e-08 1.8537081747e-04 
          -3.0303265129e-05 8.1054543806e-08 1.6989554060e-04 
          -2.9266137614e-05 8.5107270607e-08 1.5492617959e-04 
          -2.8178418513e-05 8.9159997416e-08 1.4048803024e-04 
          -2.7040107826e-05 9.3212724239e-08 1.2660638833e-04 
          -2.5851205553e-05 9.7265451071e-08 1.1330654966e-04 
          -2.4611711694e-05 1.0131817793e-07 1.0061381003e-04 
          -2.3321626249e-05 1.0537090472e-07 8.8553465217e-05 
          -2.1980949218e-05 1.0942363189e-07 7.7150811027e-05 
          -2.0589680601e-05 1.1347635732e-07 6.6431143249e-05 
          -1.9147820397e-05 1.1752909122e-07 5.6419757677e-05 
          -1.7655368614e-05 1.2158178462e-07 4.7141950096e-05 
          -1.6112325197e-05 1.2563467484e-07 3.8623016345e-05 
          -1.4518690432e-05 1.2968659959e-07 3.0888252054e-05 
          -1.2874463329e-05 1.3374308646e-07 2.3962954026e-05 
          -1.1179650373e-05 1.3777748322e-07 1.7872410577e-05 
          -9.4342103404e-06 1.4192354782e-07 1.2641936928e-05 
          -7.6382255937e-06 1.4555566903e-07 8.2967172340e-06 
          -5.7910279447e-06 1.5161222070e-07 4.8634444962e-06 
          -3.8998435063e-06 1.4441875555e-07 2.3649484088e-06 
          -1.9617319107e-06 1.9583354900e-07 8.3067751922e-07 
        </DataArray>
        <DataArray type="Float32" Name="Displacement" NumberOfComponents="3" format="ascii">
          -4.0587609773e-05 2.2537148898e-08 5.4229852166e-04 
          0.0000000000e+00 0.0000000000e+00 0.0000000000e+00 
          -4.0587609773e-05 -2.2537131673e-08 5.4229852166e-04 
          0.0000000000e+00 0.0000000000e+00 0.0000000000e+00 
          -4.0483228686e-05 -1.1429508400e-08 5.2161790781e-04 
          -4.0346732540e-05 -1.1860730093e-08 5.0133593835e-04 
          -4.0198617231e-05 -1.3069878234e-08 4.8112933013e-04 
          -4.0016391269e-05 -1.6446099763e-08 4.6100491387e-04 
          -3.9788286433e-05 -2.0248345969e-08 4.4097910841e-04 
          -3.9510476970e-05 -2.4284756973e-08 4.2107805832e-04 
          -3.9181944836e-05 -2.8350724865e-08 4.0132798681e-04 
          -3.8802630054e-05 -3.2415926247e-08 3.8175477385e-04 
          -3.8372629782e-05 -3.6473503759e-08 3.6238390837e-04 
          -3.7892009716e-05 -4.0527474878e-08 3.4324072307e-04 
          -3.7360794321e-05 -4.4580244435e-08 3.2435050840e-04 
          -3.6778988942e-05 -4.8632837170e-08 3.0573855235e-04 
          -3.6146593387e-05 -5.2685480668e-08 2.8743014694e-04 
          -3.5463606841e-05 -5.6738178129e-08 2.6945058683e-04 
          -3.4730028863e-05 -6.0790899405e-08 2.5182516767e-04 
          -3.3945859308e-05 -6.4843627233e-08 2.3457918532e-04 
          -3.3111098152e-05 -6.8896355640e-08 2.1773793563e-04 
          -3.2225745399e-05 -7.2949083512e-08 2.0132671441e-04 
          -3.1289801057e-05 -7.7001810996e-08 1.8537081747e-04 
          -3.0303265129e-05 -8.1054538325e-08 1.6989554060e-04 
          -2.9266137614e-05 -8.5107265612e-08 1.5492617959e-04 
          -2.8178418513e-05 -8.9159992891e-08 1.4048803024e-04 
          -2.7040107826e-05 -9.3212720167e-08 1.2660638833e-04 
          -2.5851205553e-05 -9.7265447433e-08 1.1330654966e-04 
          -2.4611711694e-05 -1.0131817470e-07 1.0061381003e-04 
          -2.3321626249e-05 -1.0537090189e-07 8.8553465217e-05 
          -2.1980949218e-05 -1.0942362943e-07 7.7150811027e-05 
          -2.0589680601e-05 -1.1347635521e-07 6.6431143249e-05 
          -1.9147820396e-05 -1.1752908944e-07 5.6419757677e-05 
          -1.7655368613e-05 -1.2158178314e-07 4.7141950096e-05 
          -1.6112325197e-05 -1.2563467364e-07 3.8623016345e-05 
          -1.4518690432e-05 -1.2968659864e-07 3.0888252054e-05 
          -1.2874463328e-05 -1.3374308573e-07 2.3962954026e-05 
          -1.1179650373e-05 -1.3777748269e-07 1.7872410577e-05 
          -9.4342103404e-06 -1.4192354746e-07 1.2641936928e-05 
          -7.6382255936e-06 -1.4555566881e-07 8.2967172340e-06 
          -5.7910279447e-06 -1.5161222058e-07 4.8634444962e-06 
          -3.8998435063e-06 -1.4441875550e-07 2.3649484088e-06 
          -1.9617319107e-06 -1.9583354899e-07 8.3067751922e-07 
          -4.0483228687e-05 1.1429525000e-08 5.2161790781e-04 
          -4.0346732541e-05 1.1860746070e-08 5.0133593835e-04 
          -4.0198617231e-05 1.3069893588e-08 4.8112933013e-04 
          -4.0016391269e-05 1.6446114493e-08 4.6100491387e-04 
          -3.9788286434e-05 2.0248360075e-08 4.4097910841e-04 
          -3.9510476970e-05 2.4284770457e-08 4.2107805832e-04 
          -3.9181944836e-05 2.8350737730e-08 4.0132798681e-04 
          -3.8802630055e-05 3.2415938496e-08 3.8175477385e-04 
          -3.8372629782e-05 3.6473515399e-08 3.6238390837e-04 
          -3.7892009716e-05 4.0527485915e-08 3.4324072307e-04 
          -3.7360794321e-05 4.4580254872e-08 3.2435050840e-04 
          -3.6778988942e-05 4.8632847015e-08 3.0573855235e-04 
          -3.6146593388e-05 5.2685489929e-08 2.8743014694e-04 
          -3.5463606842e-05 5.6738186815e-08 2.6945058683e-04 
          -3.4730028863e-05 6.0790907526e-08 2.5182516767e-04 
          -3.3945859308e-05 6.4843634802e-08 2.3457918532e-04 
          -3.3111098152e-05 6.8896362668e-08 2.1773793563e-04 
          -3.2225745400e-05 7.2949090010e-08 2.0132671441e-04 
          -3.1289801058e-05 7.7001816979e-08 1.8537081747e-04 
          -3.0303265129e-05 8.1054543806e-08 1.6989554060e-04 
          -2.9266137614e-05 8.5107270607e-08 1.5492617959e-04 
          -2.8178418513e-05 8.9159997416e-08 1.4048803024e-04 
          -2.7040107826e-05 9.3212724239e-08 1.2660638833e-04 
          -2.5851205553e-05 9.7265451071e-08 1.1330654966e-04 
          -2.4611711694e-05 1.0131817793e-07 1.0061381003e-04 
          -2.3321626249e-05 1.0537090472e-07 8.8553465217e-05 
          -2.1980949218e-05 1.0942363189e-07 7.7150811027e-05 
          -2.0589680601e-05 1.1347635732e-07 6.6431143249e-05 
          -1.9147820397e-05 1.1752909122e-07 5.6419757677e-05 
          -1.7655368614e-05 1.2158178462e-07 4.7141950096e-05 
          -1.6112325197e-05 1.2563467484e-07 3.8623016345e-05 
          -1.4518690432e-05 1.2968659959e-07 3.0888252054e-05 
          -1.2874463329e-05 1.3374308646e-07 2.3962954026e-05 
          -1.1179650373e-05 1.3777748322e-07 1.7872410577e-05 
          -9.4342103404e-06 1.4192354782e-07 1.2641936928e-05 
          -7.6382255937e-06 1.4555566903e-07 8.2967172340e-06 
          -5.7910279447e-06 1.5161222070e-07 4.8634444962e-06 
          -3.8998435063e-06 1.4441875555e-07 2.3649484088e-06 
          -1.9617319107e-06 1.9583354900e-07 8.3067751922e-07 
        </DataArray>
        <DataArray type="Float32" Name="Pressure" format="ascii">
          0.0000000000e+00
          0.0000000000e+00
          0.0000000000e+00
          0.0000000000e+00
          0.0000000000e+00
          0.0000000000e+00
          0.0000000000e+00
          0.0000000000e+00
          0.0000000000e+00
          0.0000000000e+00
          0.0000000000e+00
          0.0000000000e+00
          0.0000000000e+00
          0.0000000000e+00
          0.0000000000e+00
          0.0000000000e+00
          0.0000000000e+00
          0.0000000000e+00
          0.0000000000e+00
          0.0000000000e+00
          0.0000000000e+00
          0.0000000000e+00
          0.0000000000e+00
          0.0000000000e+00
          0.0000000000e+00
          0.0000000000e+00
          0.0000000000e+00
          0.0000000000e+00
          0.0000000000e+00
          0.0000000000e+00
          0.0000000000e+00
          0.0000000000e+00
          0.0000000000e+00
          0.0000000000e+00
          0.0000000000e+00
          0.0000000000e+00
          0.0000000000e+00
          0.0000000000e+00
          0.0000000000e+00
          0.0000000000e+00
          0.0000000000e+00
          0.0000000000e+00
          0.0000000000e+00
          0.0000000000e+00
          0.0000000000e+00
          0.0000000000e+00
          0.0000000000e+00
          0.0000000000e+00
          0.0000000000e+00
          0.0000000000e+00
          0.0000000000e+00
          0.0000000000e+00
          0.0000000000e+00
          0.0000000000e+00
          0.0000000000e+00
          0.0000000000e+00
          0.0000000000e+00
          0.0000000000e+00
          0.0000000000e+00
          0.0000000000e+00
          0.0000000000e+00
          0.0000000000e+00
          0.0000000000e+00
          0.0000000000e+00
          0.0000000000e+00
          0.0000000000e+00
          0.0000000000e+00
          0.0000000000e+00
          0.0000000000e+00
          0.0000000000e+00
          0.0000000000e+00
          0.0000000000e+00
          0.0000000000e+00
          0.0000000000e+00
          0.0000000000e+00
          0.0000000000e+00
          0.0000000000e+00
          0.0000000000e+00
          0.0000000000e+00
          0.0000000000e+00
          0.0000000000e+00
          0.0000000000e+00
        </DataArray>
      </PointData>
      <CellData>
        <DataArray type="Int32" Name="ElementTag" format="ascii">
          161
          162
          163
          164
          165
          166
          167
          168
          169
          170
          171
          172
          173
          174
          175
          176
          177
          178
          179
          180
          181
          182
          183
          184
          185
          186
          187
          188
          189
          190
          191
          192
          193
          194
          195
          196
          197
          198
          199
          200
        </DataArray>
      </CellData>
    </Piece>
  </UnstructuredGrid>
</VTKFile>
