<?xml version="1.0"?>
<VTKFile type="UnstructuredGrid" version="1.0" byte_order="LittleEndian" compressor="vtkZLibDataCompressor">
  <UnstructuredGrid>
    <Piece NumberOfPoints="410" NumberOfCells="160">
      <Points>
        <DataArray type="Float32" Name="Points" NumberOfComponents="3" format="ascii">
          0.0000000000e+00 0.0000000000e+00 0.0000000000e+00 
          1.0000000000e+01 0.0000000000e+00 0.0000000000e+00 
          1.0000000000e+01 0.0000000000e+00 1.0000000000e+00 
          0.0000000000e+00 0.0000000000e+00 1.0000000000e+00 
          0.0000000000e+00 2.0000000000e-01 0.0000000000e+00 
          1.0000000000e+01 2.0000000000e-01 0.0000000000e+00 
          1.0000000000e+01 2.0000000000e-01 1.0000000000e+00 
          0.0000000000e+00 2.0000000000e-01 1.0000000000e+00 
          2.5000000000e-01 0.0000000000e+00 0.0000000000e+00 
          5.0000000000e-01 0.0000000000e+00 0.0000000000e+00 
          7.5000000000e-01 0.0000000000e+00 0.0000000000e+00 
          1.0000000000e+00 0.0000000000e+00 0.0000000000e+00 
          1.2500000000e+00 0.0000000000e+00 0.0000000000e+00 
          1.5000000000e+00 0.0000000000e+00 0.0000000000e+00 
          1.7500000000e+00 0.0000000000e+00 0.0000000000e+00 
          2.0000000000e+00 0.0000000000e+00 0.0000000000e+00 
          2.2500000000e+00 0.0000000000e+00 0.0000000000e+00 
          2.5000000000e+00 0.0000000000e+00 0.0000000000e+00 
          2.7500000000e+00 0.0000000000e+00 0.0000000000e+00 
          3.0000000000e+00 0.0000000000e+00 0.0000000000e+00 
          3.2500000000e+00 0.0000000000e+00 0.0000000000e+00 
          3.5000000000e+00 0.0000000000e+00 0.0000000000e+00 
          3.7500000000e+00 0.0000000000e+00 0.0000000000e+00 
          4.0000000000e+00 0.0000000000e+00 0.0000000000e+00 
          4.2500000000e+00 0.0000000000e+00 0.0000000000e+00 
          4.5000000000e+00 0.0000000000e+00 0.0000000000e+00 
          4.7500000000e+00 0.0000000000e+00 0.0000000000e+00 
          5.0000000000e+00 0.0000000000e+00 0.0000000000e+00 
          5.2500000000e+00 0.0000000000e+00 0.0000000000e+00 
          5.5000000000e+00 0.0000000000e+00 0.0000000000e+00 
          5.7500000000e+00 0.0000000000e+00 0.0000000000e+00 
          6.0000000000e+00 0.0000000000e+00 0.0000000000e+00 
          6.2500000000e+00 0.0000000000e+00 0.0000000000e+00 
          6.5000000000e+00 0.0000000000e+00 0.0000000000e+00 
          6.7500000000e+00 0.0000000000e+00 0.0000000000e+00 
          7.0000000000e+00 0.0000000000e+00 0.0000000000e+00 
          7.2500000000e+00 0.0000000000e+00 0.0000000000e+00 
          7.5000000000e+00 0.0000000000e+00 0.0000000000e+00 
          7.7500000000e+00 0.0000000000e+00 0.0000000000e+00 
          8.0000000000e+00 0.0000000000e+00 0.0000000000e+00 
          8.2500000000e+00 0.0000000000e+00 0.0000000000e+00 
          8.5000000000e+00 0.0000000000e+00 0.0000000000e+00 
          8.7500000000e+00 0.0000000000e+00 0.0000000000e+00 
          9.0000000000e+00 0.0000000000e+00 0.0000000000e+00 
          9.2500000000e+00 0.0000000000e+00 0.0000000000e+00 
          9.5000000000e+00 0.0000000000e+00 0.0000000000e+00 
          9.7500000000e+00 0.0000000000e+00 0.0000000000e+00 
          1.0000000000e+01 0.0000000000e+00 2.5000000000e-01 
          1.0000000000e+01 0.0000000000e+00 5.0000000000e-01 
          1.0000000000e+01 0.0000000000e+00 7.5000000000e-01 
          9.7500000000e+00 0.0000000000e+00 1.0000000000e+00 
          9.5000000000e+00 0.0000000000e+00 1.0000000000e+00 
          9.2500000000e+00 0.0000000000e+00 1.0000000000e+00 
          9.0000000000e+00 0.0000000000e+00 1.0000000000e+00 
          8.7500000000e+00 0.0000000000e+00 1.0000000000e+00 
          8.5000000000e+00 0.0000000000e+00 1.0000000000e+00 
          8.2500000000e+00 0.0000000000e+00 1.0000000000e+00 
          8.0000000000e+00 0.0000000000e+00 1.0000000000e+00 
          7.7500000000e+00 0.0000000000e+00 1.0000000000e+00 
          7.5000000000e+00 0.0000000000e+00 1.0000000000e+00 
          7.2500000000e+00 0.0000000000e+00 1.0000000000e+00 
          7.0000000000e+00 0.0000000000e+00 1.0000000000e+00 
          6.7500000000e+00 0.0000000000e+00 1.0000000000e+00 
          6.5000000000e+00 0.0000000000e+00 1.0000000000e+00 
          6.2500000000e+00 0.0000000000e+00 1.0000000000e+00 
          6.0000000000e+00 0.0000000000e+00 1.0000000000e+00 
          5.7500000000e+00 0.0000000000e+00 1.0000000000e+00 
          5.5000000000e+00 0.0000000000e+00 1.0000000000e+00 
          5.2500000000e+00 0.0000000000e+00 1.0000000000e+00 
          5.0000000000e+00 0.0000000000e+00 1.0000000000e+00 
          4.7500000000e+00 0.0000000000e+00 1.0000000000e+00 
          4.5000000000e+00 0.0000000000e+00 1.0000000000e+00 
          4.2500000000e+00 0.0000000000e+00 1.0000000000e+00 
          4.0000000000e+00 0.0000000000e+00 1.0000000000e+00 
          3.7500000000e+00 0.0000000000e+00 1.0000000000e+00 
          3.5000000000e+00 0.0000000000e+00 1.0000000000e+00 
          3.2500000000e+00 0.0000000000e+00 1.0000000000e+00 
          3.0000000000e+00 0.0000000000e+00 1.0000000000e+00 
          2.7500000000e+00 0.0000000000e+00 1.0000000000e+00 
          2.5000000000e+00 0.0000000000e+00 1.0000000000e+00 
          2.2500000000e+00 0.0000000000e+00 1.0000000000e+00 
          2.0000000000e+00 0.0000000000e+00 1.0000000000e+00 
          1.7500000000e+00 0.0000000000e+00 1.0000000000e+00 
          1.5000000000e+00 0.0000000000e+00 1.0000000000e+00 
          1.2500000000e+00 0.0000000000e+00 1.0000000000e+00 
          1.0000000000e+00 0.0000000000e+00 1.0000000000e+00 
          7.5000000000e-01 0.0000000000e+00 1.0000000000e+00 
          5.0000000000e-01 0.0000000000e+00 1.0000000000e+00 
          2.5000000000e-01 0.0000000000e+00 1.0000000000e+00 
          0.0000000000e+00 0.0000000000e+00 7.5000000000e-01 
          0.0000000000e+00 0.0000000000e+00 5.0000000000e-01 
          0.0000000000e+00 0.0000000000e+00 2.5000000000e-01 
          2.5000000000e-01 2.0000000000e-01 0.0000000000e+00 
          5.0000000000e-01 2.0000000000e-01 0.0000000000e+00 
          7.5000000000e-01 2.0000000000e-01 0.0000000000e+00 
          1.0000000000e+00 2.0000000000e-01 0.0000000000e+00 
          1.2500000000e+00 2.0000000000e-01 0.0000000000e+00 
          1.5000000000e+00 2.0000000000e-01 0.0000000000e+00 
          1.7500000000e+00 2.0000000000e-01 0.0000000000e+00 
          2.0000000000e+00 2.0000000000e-01 0.0000000000e+00 
          2.2500000000e+00 2.0000000000e-01 0.0000000000e+00 
          2.5000000000e+00 2.0000000000e-01 0.0000000000e+00 
          2.7500000000e+00 2.0000000000e-01 0.0000000000e+00 
          3.0000000000e+00 2.0000000000e-01 0.0000000000e+00 
          3.2500000000e+00 2.0000000000e-01 0.0000000000e+00 
          3.5000000000e+00 2.0000000000e-01 0.0000000000e+00 
          3.7500000000e+00 2.0000000000e-01 0.0000000000e+00 
          4.0000000000e+00 2.0000000000e-01 0.0000000000e+00 
          4.2500000000e+00 2.0000000000e-01 0.0000000000e+00 
          4.5000000000e+00 2.0000000000e-01 0.0000000000e+00 
          4.7500000000e+00 2.0000000000e-01 0.0000000000e+00 
          5.0000000000e+00 2.0000000000e-01 0.0000000000e+00 
          5.2500000000e+00 2.0000000000e-01 0.0000000000e+00 
          5.5000000000e+00 2.0000000000e-01 0.0000000000e+00 
          5.7500000000e+00 2.0000000000e-01 0.0000000000e+00 
          6.0000000000e+00 2.0000000000e-01 0.0000000000e+00 
          6.2500000000e+00 2.0000000000e-01 0.0000000000e+00 
          6.5000000000e+00 2.0000000000e-01 0.0000000000e+00 
          6.7500000000e+00 2.0000000000e-01 0.0000000000e+00 
          7.0000000000e+00 2.0000000000e-01 0.0000000000e+00 
          7.2500000000e+00 2.0000000000e-01 0.0000000000e+00 
          7.5000000000e+00 2.0000000000e-01 0.0000000000e+00 
          7.7500000000e+00 2.0000000000e-01 0.0000000000e+00 
          8.0000000000e+00 2.0000000000e-01 0.0000000000e+00 
          8.2500000000e+00 2.0000000000e-01 0.0000000000e+00 
          8.5000000000e+00 2.0000000000e-01 0.0000000000e+00 
          8.7500000000e+00 2.0000000000e-01 0.0000000000e+00 
          9.0000000000e+00 2.0000000000e-01 0.0000000000e+00 
          9.2500000000e+00 2.0000000000e-01 0.0000000000e+00 
          9.5000000000e+00 2.0000000000e-01 0.0000000000e+00 
          9.7500000000e+00 2.0000000000e-01 0.0000000000e+00 
          1.0000000000e+01 2.0000000000e-01 2.5000000000e-01 
          1.0000000000e+01 2.0000000000e-01 5.0000000000e-01 
          1.0000000000e+01 2.0000000000e-01 7.5000000000e-01 
          9.7500000000e+00 2.0000000000e-01 1.0000000000e+00 
          9.5000000000e+00 2.0000000000e-01 1.0000000000e+00 
          9.2500000000e+00 2.0000000000e-01 1.0000000000e+00 
          9.0000000000e+00 2.0000000000e-01 1.0000000000e+00 
          8.7500000000e+00 2.0000000000e-01 1.0000000000e+00 
          8.5000000000e+00 2.0000000000e-01 1.0000000000e+00 
          8.2500000000e+00 2.0000000000e-01 1.0000000000e+00 
          8.0000000000e+00 2.0000000000e-01 1.0000000000e+00 
          7.7500000000e+00 2.0000000000e-01 1.0000000000e+00 
          7.5000000000e+00 2.0000000000e-01 1.0000000000e+00 
          7.2500000000e+00 2.0000000000e-01 1.0000000000e+00 
          7.0000000000e+00 2.0000000000e-01 1.0000000000e+00 
          6.7500000000e+00 2.0000000000e-01 1.0000000000e+00 
          6.5000000000e+00 2.0000000000e-01 1.0000000000e+00 
          6.2500000000e+00 2.0000000000e-01 1.0000000000e+00 
          6.0000000000e+00 2.0000000000e-01 1.0000000000e+00 
          5.7500000000e+00 2.0000000000e-01 1.0000000000e+00 
          5.5000000000e+00 2.0000000000e-01 1.0000000000e+00 
          5.2500000000e+00 2.0000000000e-01 1.0000000000e+00 
          5.0000000000e+00 2.0000000000e-01 1.0000000000e+00 
          4.7500000000e+00 2.0000000000e-01 1.0000000000e+00 
          4.5000000000e+00 2.0000000000e-01 1.0000000000e+00 
[...]
      <PointData>
        <DataArray type="Int32" Name="NodeTag" format="ascii">
          1
          2
          3
          4
          5
          6
          7
          8
          9
          10
          11
          12
          13
          14
          15
          16
          17
          18
          19
          20
          21
          22
          23
          24
          25
          26
          27
          28
          29
          30
          31
          32
          33
          34
          35
          36
          37
          38
          39
          40
          41
          42
          43
          44
          45
          46
          47
          48
          49
          50
          51
          52
          53
          54
          55
          56
          57
          58
          59
          60
          61
          62
          63
          64
          65
          66
          67
          68
          69
          70
          71
          72
          73
          74
          75
          76
          77
          78
          79
          80
          81
          82
          83
          84
          85
          86
          87
          88
          89
          90
          91
          92
          93
          94
          95
          96
          97
          98
          99
          100
          101
          102
          103
          104
          105
          106
          107
          108
          109
          110
          111
          112
          113
          114
          115
          116
          117
          118
          119
          120
          121
          122
          123
          124
          125
          126
          127
          128
          129
          130
          131
          132
          133
          134
          135
          136
          137
          138
          139
          140
          141
          142
          143
          144
          145
          146
          147
          148
          149
          150
          151
          152
          153
          154
          155
          156
          157
          158
          159
          160
          161
          162
          163
          164
          165
          166
          167
          168
          169
          170
          171
          172
          173
          174
          175
          176
          177
          178
          179
          180
          181
          182
          183
          184
          185
          186
          187
          188
          189
          190
          191
          192
          193
          194
          195
          196
          197
          198
          199
          200
          201
          202
          203
          204
          205
          206
          207
          208
          209
          210
          211
          212
          213
          214
          215
          216
          217
          218
          219
          220
          221
          222
          223
          224
          225
          226
          227
          228
          229
          230
          231
          232
          233
          234
          235
          236
          237
          238
          239
          240
          241
          242
          243
          244
          245
          246
          247
          248
          249
          250
          251
          252
          253
          254
          255
          256
          257
          258
          259
          260
          261
          262
          263
          264
          265
          266
          267
          268
          269
          270
          271
          272
          273
          274
          275
          276
          277
          278
          279
          280
          281
          282
          283
          284
          285
          286
          287
          288
          289
          290
          291
          292
          293
          294
          295
          296
          297
          298
          299
          300
          301
          302
          303
          304
          305
          306
          307
          308
          309
          310
          311
          312
          313
          314
          315
          316
          317
          318
          319
          320
          321
          322
          323
          324
          325
          326
          327
          328
          329
          330
          331
          332
          333
          334
          335
          336
          337
          338
          339
          340
          341
          342
          343
          344
          345
          346
          347
          348
          349
          350
          351
          352
          353
          354
          355
          356
          357
          358
          359
          360
          361
          362
          363
          364
          365
          366
          367
          368
          369
          370
          371
          372
          373
          374
          375
          376
          377
          378
          379
          380
          381
          382
          383
          384
          385
          386
          387
          388
          389
          390
          391
          392
          393
          394
          395
          396
          397
          398
          399
          400
          401
          402
          403
          404
          405
          406
          407
          408
          409
          410
        </DataArray>
        <DataArray type="Float32" Name="AllDisplacement" NumberOfComponents="3" format="ascii">
          0.0000000000e+00 0.0000000000e+00 0.0000000000e+00 
          4.0350983051e-05 4.4730603579e-10 5.4176226072e-04 
          -4.0587609773e-05 2.2537148898e-08 5.4229852166e-04 
          0.0000000000e+00 0.0000000000e+00 0.0000000000e+00 
          0.0000000000e+00 0.0000000000e+00 0.0000000000e+00 
          4.0350983051e-05 -4.4728819010e-10 5.4176226073e-04 
          -4.0587609773e-05 -2.2537131673e-08 5.4229852166e-04 
          0.0000000000e+00 0.0000000000e+00 0.0000000000e+00 
          1.9617319107e-06 1.9583354900e-07 8.3067751922e-07 
          3.8998435063e-06 1.4441875557e-07 2.3649484088e-06 
          5.7910279447e-06 1.5161222072e-07 4.8634444962e-06 
          7.6382255937e-06 1.4555566906e-07 8.2967172339e-06 
          9.4342103404e-06 1.4192354786e-07 1.2641936928e-05 
          1.1179650373e-05 1.3777748326e-07 1.7872410577e-05 
          1.2874463329e-05 1.3374308652e-07 2.3962954026e-05 
          1.4518690432e-05 1.2968659966e-07 3.0888252054e-05 
          1.6112325197e-05 1.2563467491e-07 3.8623016345e-05 
          1.7655368614e-05 1.2158178471e-07 4.7141950096e-05 
          1.9147820397e-05 1.1752909132e-07 5.6419757676e-05 
          2.0589680601e-05 1.1347635742e-07 6.6431143249e-05 
          2.1980949218e-05 1.0942363200e-07 7.7150811027e-05 
          2.3321626249e-05 1.0537090484e-07 8.8553465217e-05 
          2.4611711694e-05 1.0131817806e-07 1.0061381003e-04 
          2.5851205553e-05 9.7265451213e-08 1.1330654966e-04 
          2.7040107826e-05 9.3212724389e-08 1.2660638833e-04 
          2.8178418513e-05 8.9159997569e-08 1.4048803024e-04 
          2.9266137614e-05 8.5107270754e-08 1.5492617959e-04 
          3.0303265128e-05 8.1054543946e-08 1.6989554060e-04 
          3.1289801056e-05 7.7001817181e-08 1.8537081747e-04 
          3.2225745399e-05 7.2949090571e-08 2.0132671441e-04 
          3.3111098160e-05 6.8896364348e-08 2.1773793562e-04 
          3.3945859344e-05 6.4843638663e-08 2.3457918531e-04 
          3.4730028958e-05 6.0790912395e-08 2.5182516773e-04 
          3.5463606976e-05 5.6738179582e-08 2.6945058712e-04 
          3.6146593254e-05 5.2685422917e-08 2.8743014777e-04 
          3.6778987351e-05 4.8632612468e-08 3.0573855374e-04 
          3.7360788452e-05 4.4579750412e-08 3.2435050811e-04 
          3.7891996365e-05 4.0527068519e-08 3.4324071130e-04 
          3.8372616420e-05 3.6475570979e-08 3.6238385970e-04 
          3.8802673149e-05 3.2427768515e-08 3.8175465225e-04 
          3.9182232366e-05 2.8387342239e-08 4.0132782918e-04 
          3.9511393647e-05 2.4349105993e-08 4.2107829434e-04 
          3.9790080667e-05 2.0270351448e-08 4.4098132866e-04 
          4.0017205008e-05 1.5964781156e-08 4.6101267770e-04 
          4.0188628717e-05 1.1194571475e-08 4.8114649798e-04 
          4.0297294841e-05 6.0890252155e-09 5.0134845676e-04 
          4.0343032890e-05 2.2657640221e-09 5.2156869153e-04 
          2.0177441092e-05 2.6106009352e-09 5.4177086731e-04 
          3.1813379896e-08 8.1963164874e-09 5.4182568791e-04 
          -2.0146496666e-05 2.0724008493e-08 5.4198373020e-04 
          -4.0483228686e-05 -1.1429508400e-08 5.2161790781e-04 
          -4.0346732540e-05 -1.1860730093e-08 5.0133593835e-04 
          -4.0198617231e-05 -1.3069878234e-08 4.8112933013e-04 
          -4.0016391269e-05 -1.6446099763e-08 4.6100491387e-04 
          -3.9788286433e-05 -2.0248345969e-08 4.4097910841e-04 
          -3.9510476970e-05 -2.4284756973e-08 4.2107805832e-04 
          -3.9181944836e-05 -2.8350724865e-08 4.0132798681e-04 
          -3.8802630054e-05 -3.2415926247e-08 3.8175477385e-04 
          -3.8372629782e-05 -3.6473503759e-08 3.6238390837e-04 
          -3.7892009716e-05 -4.0527474878e-08 3.4324072307e-04 
          -3.7360794321e-05 -4.4580244435e-08 3.2435050840e-04 
          -3.6778988942e-05 -4.8632837170e-08 3.0573855235e-04 
          -3.6146593387e-05 -5.2685480668e-08 2.8743014694e-04 
          -3.5463606841e-05 -5.6738178129e-08 2.6945058683e-04 
          -3.4730028863e-05 -6.0790899405e-08 2.5182516767e-04 
          -3.3945859308e-05 -6.4843627233e-08 2.3457918532e-04 
          -3.3111098152e-05 -6.8896355640e-08 2.1773793563e-04 
          -3.2225745399e-05 -7.2949083512e-08 2.0132671441e-04 
          -3.1289801057e-05 -7.7001810996e-08 1.8537081747e-04 
          -3.0303265129e-05 -8.1054538325e-08 1.6989554060e-04 
          -2.9266137614e-05 -8.5107265612e-08 1.5492617959e-04 
          -2.8178418513e-05 -8.9159992891e-08 1.4048803024e-04 
          -2.7040107826e-05 -9.3212720167e-08 1.2660638833e-04 
          -2.5851205553e-05 -9.7265447433e-08 1.1330654966e-04 
          -2.4611711694e-05 -1.0131817470e-07 1.0061381003e-04 
          -2.3321626249e-05 -1.0537090189e-07 8.8553465217e-05 
          -2.1980949218e-05 -1.0942362943e-07 7.7150811027e-05 
          -2.0589680601e-05 -1.1347635521e-07 6.6431143249e-05 
          -1.9147820396e-05 -1.1752908944e-07 5.6419757677e-05 
          -1.7655368613e-05 -1.2158178314e-07 4.7141950096e-05 
          -1.6112325197e-05 -1.2563467364e-07 3.8623016345e-05 
          -1.4518690432e-05 -1.2968659864e-07 3.0888252054e-05 
          -1.2874463328e-05 -1.3374308573e-07 2.3962954026e-05 
          -1.1179650373e-05 -1.3777748269e-07 1.7872410577e-05 
          -9.4342103404e-06 -1.4192354746e-07 1.2641936928e-05 
          -7.6382255936e-06 -1.4555566881e-07 8.2967172340e-06 
          -5.7910279447e-06 -1.5161222058e-07 4.8634444962e-06 
          -3.8998435063e-06 -1.4441875550e-07 2.3649484088e-06 
          -1.9617319107e-06 -1.9583354899e-07 8.3067751922e-07 
          0.0000000000e+00 0.0000000000e+00 0.0000000000e+00 
          0.0000000000e+00 0.0000000000e+00 0.0000000000e+00 
          0.0000000000e+00 0.0000000000e+00 0.0000000000e+00 
          1.9617319107e-06 -1.9583354898e-07 8.3067751922e-07 
          3.8998435062e-06 -1.4441875549e-07 2.3649484088e-06 
          5.7910279447e-06 -1.5161222056e-07 4.8634444962e-06 
          7.6382255936e-06 -1.4555566878e-07 8.2967172339e-06 
          9.4342103404e-06 -1.4192354742e-07 1.2641936928e-05 
          1.1179650373e-05 -1.3777748264e-07 1.7872410577e-05 
          1.2874463328e-05 -1.3374308568e-07 2.3962954026e-05 
          1.4518690432e-05 -1.2968659857e-07 3.0888252054e-05 
          1.6112325197e-05 -1.2563467356e-07 3.8623016345e-05 
          1.7655368613e-05 -1.2158178306e-07 4.7141950096e-05 
          1.9147820396e-05 -1.1752908935e-07 5.6419757676e-05 
          2.0589680601e-05 -1.1347635511e-07 6.6431143249e-05 
          2.1980949218e-05 -1.0942362932e-07 7.7150811027e-05 
          2.3321626249e-05 -1.0537090177e-07 8.8553465217e-05 
          2.4611711694e-05 -1.0131817457e-07 1.0061381003e-04 
          2.5851205553e-05 -9.7265447291e-08 1.1330654966e-04 
          2.7040107826e-05 -9.3212720014e-08 1.2660638833e-04 
          2.8178418513e-05 -8.9159992721e-08 1.4048803024e-04 
          2.9266137613e-05 -8.5107265416e-08 1.5492617959e-04 
          3.0303265128e-05 -8.1054538103e-08 1.6989554060e-04 
          3.1289801056e-05 -7.7001810816e-08 1.8537081747e-04 
          3.2225745399e-05 -7.2949083669e-08 2.0132671441e-04 
          3.3111098160e-05 -6.8896356897e-08 2.1773793562e-04 
          3.3945859344e-05 -6.4843630648e-08 2.3457918531e-04 
          3.4730028957e-05 -6.0790903807e-08 2.5182516773e-04 
          3.5463606975e-05 -5.6738170411e-08 2.6945058712e-04 
          3.6146593254e-05 -5.2685413154e-08 2.8743014777e-04 
          3.6778987351e-05 -4.8632602107e-08 3.0573855374e-04 
          3.7360788452e-05 -4.4579739446e-08 3.2435050811e-04 
          3.7891996365e-05 -4.0527056943e-08 3.4324071130e-04 
          3.8372616419e-05 -3.6475558787e-08 3.6238385970e-04 
          3.8802673149e-05 -3.2427755702e-08 3.8175465225e-04 
          3.9182232366e-05 -2.8387328801e-08 4.0132782918e-04 
          3.9511393647e-05 -2.4349091926e-08 4.2107829434e-04 
          3.9790080667e-05 -2.0270336752e-08 4.4098132866e-04 
          4.0017205008e-05 -1.5964765830e-08 4.6101267770e-04 
          4.0188628717e-05 -1.1194555518e-08 4.8114649798e-04 
          4.0297294841e-05 -6.0890086289e-09 5.0134845676e-04 
          4.0343032889e-05 -2.2657468057e-09 5.2156869153e-04 
          2.0177441092e-05 -2.6105832433e-09 5.4177086731e-04 
          3.1813379645e-08 -8.1962989510e-09 5.4182568791e-04 
          -2.0146496666e-05 -2.0723991113e-08 5.4198373020e-04 
          -4.0483228687e-05 1.1429525000e-08 5.2161790781e-04 
          -4.0346732541e-05 1.1860746070e-08 5.0133593835e-04 
          -4.0198617231e-05 1.3069893588e-08 4.8112933013e-04 
          -4.0016391269e-05 1.6446114493e-08 4.6100491387e-04 
          -3.9788286434e-05 2.0248360075e-08 4.4097910841e-04 
          -3.9510476970e-05 2.4284770457e-08 4.2107805832e-04 
          -3.9181944836e-05 2.8350737730e-08 4.0132798681e-04 
          -3.8802630055e-05 3.2415938496e-08 3.8175477385e-04 
          -3.8372629782e-05 3.6473515399e-08 3.6238390837e-04 
          -3.7892009716e-05 4.0527485915e-08 3.4324072307e-04 
          -3.7360794321e-05 4.4580254872e-08 3.2435050840e-04 
          -3.6778988942e-05 4.8632847015e-08 3.0573855235e-04 
          -3.6146593388e-05 5.2685489929e-08 2.8743014694e-04 
          -3.5463606842e-05 5.6738186815e-08 2.6945058683e-04 
          -3.4730028863e-05 6.0790907526e-08 2.5182516767e-04 
          -3.3945859308e-05 6.4843634802e-08 2.3457918532e-04 
          -3.3111098152e-05 6.8896362668e-08 2.1773793563e-04 
          -3.2225745400e-05 7.2949090010e-08 2.0132671441e-04 
          -3.1289801058e-05 7.7001816979e-08 1.8537081747e-04 
          -3.0303265129e-05 8.1054543806e-08 1.6989554060e-04 
          -2.9266137614e-05 8.5107270607e-08 1.5492617959e-04 
          -2.8178418513e-05 8.9159997416e-08 1.4048803024e-04 
          -2.7040107826e-05 9.3212724239e-08 1.2660638833e-04 
          -2.5851205553e-05 9.7265451071e-08 1.1330654966e-04 
          -2.4611711694e-05 1.0131817793e-07 1.0061381003e-04 
          -2.3321626249e-05 1.0537090472e-07 8.8553465217e-05 
          -2.1980949218e-05 1.0942363189e-07 7.7150811027e-05 
          -2.0589680601e-05 1.1347635732e-07 6.6431143249e-05 
          -1.9147820397e-05 1.1752909122e-07 5.6419757677e-05 
          -1.7655368614e-05 1.2158178462e-07 4.7141950096e-05 
          -1.6112325197e-05 1.2563467484e-07 3.8623016345e-05 
          -1.4518690432e-05 1.2968659959e-07 3.0888252054e-05 
          -1.2874463329e-05 1.3374308646e-07 2.3962954026e-05 
          -1.1179650373e-05 1.3777748322e-07 1.7872410577e-05 
          -9.4342103404e-06 1.4192354782e-07 1.2641936928e-05 
          -7.6382255937e-06 1.4555566903e-07 8.2967172340e-06 
          -5.7910279447e-06 1.5161222070e-07 4.8634444962e-06 
          -3.8998435063e-06 1.4441875555e-07 2.3649484088e-06 
          -1.9617319107e-06 1.9583354900e-07 8.3067751922e-07 
          0.0000000000e+00 0.0000000000e+00 0.0000000000e+00 
          0.0000000000e+00 0.0000000000e+00 0.0000000000e+00 
          0.0000000000e+00 0.0000000000e+00 0.0000000000e+00 
          9.1842462506e-07 9.7693495905e-08 5.1529408870e-07 
          -3.2939673655e-19 8.3722672370e-18 4.3379954744e-07 
          -9.1842462505e-07 -9.7693495888e-08 5.1529408870e-07 
          1.9161301984e-06 7.4036604604e-08 2.0765689980e-06 
          -1.0037335223e-18 3.4279733846e-17 1.9718875896e-06 
          -1.9161301984e-06 -7.4036604536e-08 2.0765689980e-06 
          2.8679362740e-06 7.5443534414e-08 4.5814147617e-06 
          -9.0180433221e-19 7.5791584146e-17 4.4879047590e-06 
          -2.8679362740e-06 -7.5443534264e-08 4.5814147617e-06 
          3.7914125038e-06 7.2680156951e-08 8.0237352447e-06 
          -4.8104904507e-20 1.3299751926e-16 7.9325779270e-06 
          -3.7914125038e-06 -7.2680156687e-08 8.0237352447e-06 
          4.6892979052e-06 7.0815030792e-08 1.2376367986e-05 
          1.4535378078e-18 2.0555602039e-16 1.2287862017e-05 
          -4.6892979052e-06 -7.0815030383e-08 1.2376367987e-05 
          5.5619972752e-06 6.8764289993e-08 1.7614446025e-05 
          3.5580258875e-18 2.9307981363e-16 1.7528426336e-05 
          -5.5619972752e-06 -6.8764289409e-08 1.7614446025e-05 
          6.4094056811e-06 6.6747290360e-08 2.3712569460e-05 
          6.2316579919e-18 3.9515463282e-16 2.3629083054e-05 
          -6.4094056810e-06 -6.6747289572e-08 2.3712569460e-05 
          7.2315195168e-06 6.4723522503e-08 3.0645456085e-05 
          9.4369192109e-18 5.1135747754e-16 3.0564498869e-05 
          -7.2315195168e-06 -6.4723521482e-08 3.0645456085e-05 
          8.0283369790e-06 6.2701123030e-08 3.8387807598e-05 
          1.3155203142e-17 6.4121860958e-16 3.8309380514e-05 
          -8.0283369789e-06 -6.2701121749e-08 3.8387807599e-05 
          8.7998586723e-06 6.0678465535e-08 4.6914328770e-05 
          1.7370331397e-17 7.8430039346e-16 4.6838431565e-05 
          -8.7998586722e-06 -6.0678463968e-08 4.6914328770e-05 
          9.5460845640e-06 5.8655858300e-08 5.6199723720e-05 
          2.2003124945e-17 9.4015622380e-16 5.6126356426e-05 
          -9.5460845639e-06 -5.8655856422e-08 5.6199723720e-05 
          1.0267014666e-05 5.6633241164e-08 6.6218696671e-05 
          2.6997237307e-17 1.1082630153e-15 6.6147859283e-05 
          -1.0267014666e-05 -5.6633238949e-08 6.6218696671e-05 
          1.0962648974e-05 5.4610625923e-08 7.6945951827e-05 
          3.2243852479e-17 1.2881175106e-15 7.6877644346e-05 
          -1.0962648974e-05 -5.4610623348e-08 7.6945951827e-05 
          1.1632987490e-05 5.2588010334e-08 8.8356193395e-05 
          3.7501486554e-17 1.4791645219e-15 8.8290415820e-05 
          -1.1632987490e-05 -5.2588007377e-08 8.8356193395e-05 
          1.2278030213e-05 5.0565394825e-08 1.0042412558e-04 
          4.2663089105e-17 1.6809130663e-15 1.0036087791e-04 
          -1.2278030212e-05 -5.0565391464e-08 1.0042412558e-04 
          1.2897777142e-05 4.8542779313e-08 1.1312445259e-04 
          4.8712817041e-17 1.8927588576e-15 1.1306373483e-04 
          -1.2897777142e-05 -4.8542775528e-08 1.1312445260e-04 
          1.3492228278e-05 4.6520163812e-08 1.2643187864e-04 