<?xml version="1.0"?>
<VTKFile type="UnstructuredGrid" version="1.0" byte_order="LittleEndian" compressor="vtkZLibDataCompressor">
  <UnstructuredGrid>
    <Piece NumberOfPoints="39" NumberOfCells="24">
      <Points>
        <DataArray type="Float32" Name="Points" NumberOfComponents="3" format="ascii">
          3.0000000000e+00 0.0000000000e+00 1.0000000000e+00 
          0.0000000000e+00 0.0000000000e+00 1.0000000000e+00 
          3.0000000000e+00 5.0000000000e-01 1.0000000000e+00 
          0.0000000000e+00 5.0000000000e-01 1.0000000000e+00 
          2.7500000000e+00 0.0000000000e+00 1.0000000000e+00 
          2.5000000000e+00 0.0000000000e+00 1.0000000000e+00 
          2.2500000000e+00 0.0000000000e+00 1.0000000000e+00 
          2.0000000000e+00 0.0000000000e+00 1.0000000000e+00 
          1.7500000000e+00 0.0000000000e+00 1.0000000000e+00 
          1.5000000000e+00 0.0000000000e+00 1.0000000000e+00 
          1.2500000000e+00 0.0000000000e+00 1.0000000000e+00 
          1.0000000000e+00 0.0000000000e+00 1.0000000000e+00 
          7.5000000000e-01 0.0000000000e+00 1.0000000000e+00 
          5.0000000000e-01 0.0000000000e+00 1.0000000000e+00 
          2.5000000000e-01 0.0000000000e+00 1.0000000000e+00 
          2.7500000000e+00 5.0000000000e-01 1.0000000000e+00 
          2.5000000000e+00 5.0000000000e-01 1.0000000000e+00 
          2.2500000000e+00 5.0000000000e-01 1.0000000000e+00 
          2.0000000000e+00 5.0000000000e-01 1.0000000000e+00 
          1.7500000000e+00 5.0000000000e-01 1.0000000000e+00 
          1.5000000000e+00 5.0000000000e-01 1.0000000000e+00 
          1.2500000000e+00 5.0000000000e-01 1.0000000000e+00 
          1.0000000000e+00 5.0000000000e-01 1.0000000000e+00 
          7.5000000000e-01 5.0000000000e-01 1.0000000000e+00 
          5.0000000000e-01 5.0000000000e-01 1.0000000000e+00 
          2.5000000000e-01 5.0000000000e-01 1.0000000000e+00 
          3.0000000000e+00 2.5000000000e-01 1.0000000000e+00 
          0.0000000000e+00 2.5000000000e-01 1.0000000000e+00 
          2.7500000000e+00 2.5000000000e-01 1.0000000000e+00 
          2.5000000000e+00 2.5000000000e-01 1.0000000000e+00 
          2.2500000000e+00 2.5000000000e-01 1.0000000000e+00 
          2.0000000000e+00 2.5000000000e-01 1.0000000000e+00 
          1.7500000000e+00 2.5000000000e-01 1.0000000000e+00 
          1.5000000000e+00 2.5000000000e-01 1.0000000000e+00 
          1.2500000000e+00 2.5000000000e-01 1.0000000000e+00 
          1.0000000000e+00 2.5000000000e-01 1.0000000000e+00 
          7.5000000000e-01 2.5000000000e-01 1.0000000000e+00 
          5.0000000000e-01 2.5000000000e-01 1.0000000000e+00 
          2.5000000000e-01 2.5000000000e-01 1.0000000000e+00 
        </DataArray>
      </Points>
      <Cells>
        <DataArray type="Int32" Name="connectivity" format="ascii">
          14 1 38 27 
          38 27 25 3 
          13 14 37 38 
          37 38 24 25 
          12 13 36 37 
          36 37 23 24 
          11 12 35 36 
          35 36 22 23 
          10 11 34 35 
          34 35 21 22 
          9 10 33 34 
          33 34 20 21 
          8 9 32 33 
          32 33 19 20 
          7 8 31 32 
          31 32 18 19 
          6 7 30 31 
          30 31 17 18 
          5 6 29 30 
          29 30 16 17 
          4 5 28 29 
          28 29 15 16 
          0 4 26 28 
          26 28 2 15 
        </DataArray>
        <DataArray type="Int32" Name="offsets" format="ascii">
          4
          8
          12
          16
          20
          24
          28
          32
          36
          40
          44
          48
          52
          56
          60
          64
          68
          72
          76
          80
          84
          88
          92
          96
        </DataArray>
        <DataArray type="Int32" Name="types" format="ascii">
          9
          9
          9
          9
          9
          9
          9
          9
          9
          9
          9
          9
          9
          9
          9
          9
          9
          9
          9
          9
          9
          9
          9
          9
        </DataArray>
      </Cells>
      <PointData>
        <DataArray type="Int32" Name="NodeTag" format="ascii">
          3
          4
          7
          8
          23
          24
          25
          26
          27
          28
          29
          30
          31
          32
          33
          51
          52
          53
          54
          55
          56
          57
          58
          59
          60
          61
          67
          68
          116
          117
          118
          119
          120
          121
          122
          123
          124
          125
          126
        </DataArray>
        <DataArray type="Float32" Name="AllDisplacement" NumberOfComponents="3" format="ascii">
          -3.1728042480e-07 9.3573475864e-06 6.1893197615e-06 
          0.0000000000e+00 0.0000000000e+00 0.0000000000e+00 
          3.1728042480e-07 9.3573475864e-06 -6.1893197615e-06 
          0.0000000000e+00 0.0000000000e+00 0.0000000000e+00 
          -2.4241282176e-07 9.6015876401e-06 6.1501275900e-06 
          -1.5080443207e-07 9.6753717081e-06 6.0192792705e-06 
          -4.2904394699e-08 9.5572174843e-06 5.8042992579e-06 
          7.1721594427e-08 9.2389311234e-06 5.5075624389e-06 
          1.8833567881e-07 8.7175247316e-06 5.1277993276e-06 
          3.0510712705e-07 7.9920442418e-06 4.6643293573e-06 
          4.2030114263e-07 7.0626545589e-06 4.1173557521e-06 
          5.2929305657e-07 5.9313200935e-06 3.4885370273e-06 
          6.1653989353e-07 4.6058815642e-06 2.7837486499e-06 
          6.3008582768e-07 3.1086806909e-06 2.0114208368e-06 
          4.4178909307e-07 1.5272851897e-06 1.1573566843e-06 
          2.4241282176e-07 9.6015876401e-06 -6.1501275900e-06 
          1.5080443207e-07 9.6753717081e-06 -6.0192792705e-06 
          4.2904394699e-08 9.5572174843e-06 -5.8042992579e-06 
          -7.1721594428e-08 9.2389311234e-06 -5.5075624389e-06 
          -1.8833567881e-07 8.7175247316e-06 -5.1277993276e-06 
          -3.0510712705e-07 7.9920442418e-06 -4.6643293573e-06 
          -4.2030114263e-07 7.0626545589e-06 -4.1173557521e-06 
          -5.2929305657e-07 5.9313200935e-06 -3.4885370273e-06 
          -6.1653989353e-07 4.6058815642e-06 -2.7837486499e-06 
          -6.3008582768e-07 3.1086806909e-06 -2.0114208368e-06 
          -4.4178909307e-07 1.5272851897e-06 -1.1573566843e-06 
          -7.4954839761e-20 9.3220372163e-06 3.7076292365e-19 
          0.0000000000e+00 0.0000000000e+00 0.0000000000e+00 
          -7.5060464702e-20 9.5677969658e-06 3.3156081499e-19 
          -7.5845338837e-20 9.6432628414e-06 2.9005679087e-19 
          -7.5548960916e-20 9.5262509310e-06 2.4891369564e-19 
          -7.3414731771e-20 9.2083463640e-06 2.0713064530e-19 
          -6.9939300650e-20 8.6870376197e-06 1.6765622538e-19 
          -6.4585226979e-20 7.9615089459e-06 1.3080611402e-19 
          -5.7571181524e-20 7.0317997761e-06 9.8556415549e-20 
          -4.9493602571e-20 5.8994097775e-06 6.9204017445e-20 
          -4.0133450772e-20 4.5696665479e-06 4.3371003714e-20 
          -2.8900848925e-20 3.0623421432e-06 2.3139443341e-20 
          -1.5152723433e-20 1.4418044965e-06 9.0977660402e-21 
        </DataArray>
        <DataArray type="Float32" Name="Displacement" NumberOfComponents="3" format="ascii">
          -3.1728042480e-07 9.3573475864e-06 6.1893197615e-06 
          0.0000000000e+00 0.0000000000e+00 0.0000000000e+00 
          3.1728042480e-07 9.3573475864e-06 -6.1893197615e-06 
          0.0000000000e+00 0.0000000000e+00 0.0000000000e+00 
          -2.4241282176e-07 9.6015876401e-06 6.1501275900e-06 
          -1.5080443207e-07 9.6753717081e-06 6.0192792705e-06 
          -4.2904394699e-08 9.5572174843e-06 5.8042992579e-06 
          7.1721594427e-08 9.2389311234e-06 5.5075624389e-06 
          1.8833567881e-07 8.7175247316e-06 5.1277993276e-06 
          3.0510712705e-07 7.9920442418e-06 4.6643293573e-06 
          4.2030114263e-07 7.0626545589e-06 4.1173557521e-06 
          5.2929305657e-07 5.9313200935e-06 3.4885370273e-06 
          6.1653989353e-07 4.6058815642e-06 2.7837486499e-06 
          6.3008582768e-07 3.1086806909e-06 2.0114208368e-06 
          4.4178909307e-07 1.5272851897e-06 1.1573566843e-06 
          2.4241282176e-07 9.6015876401e-06 -6.1501275900e-06 
          1.5080443207e-07 9.6753717081e-06 -6.0192792705e-06 
          4.2904394699e-08 9.5572174843e-06 -5.8042992579e-06 
          -7.1721594428e-08 9.2389311234e-06 -5.5075624389e-06 
          -1.8833567881e-07 8.7175247316e-06 -5.1277993276e-06 
          -3.0510712705e-07 7.9920442418e-06 -4.6643293573e-06 
          -4.2030114263e-07 7.0626545589e-06 -4.1173557521e-06 
          -5.2929305657e-07 5.9313200935e-06 -3.4885370273e-06 
          -6.1653989353e-07 4.6058815642e-06 -2.7837486499e-06 
          -6.3008582768e-07 3.1086806909e-06 -2.0114208368e-06 
          -4.4178909307e-07 1.5272851897e-06 -1.1573566843e-06 
          -7.4954839761e-20 9.3220372163e-06 3.7076292365e-19 
          0.0000000000e+00 0.0000000000e+00 0.0000000000e+00 
          -7.5060464702e-20 9.5677969658e-06 3.3156081499e-19 
          -7.5845338837e-20 9.6432628414e-06 2.9005679087e-19 
          -7.5548960916e-20 9.5262509310e-06 2.4891369564e-19 
          -7.3414731771e-20 9.2083463640e-06 2.0713064530e-19 
          -6.9939300650e-20 8.6870376197e-06 1.6765622538e-19 
          -6.4585226979e-20 7.9615089459e-06 1.3080611402e-19 
          -5.7571181524e-20 7.0317997761e-06 9.8556415549e-20 
          -4.9493602571e-20 5.8994097775e-06 6.9204017445e-20 
          -4.0133450772e-20 4.5696665479e-06 4.3371003714e-20 
          -2.8900848925e-20 3.0623421432e-06 2.3139443341e-20 
          -1.5152723433e-20 1.4418044965e-06 9.0977660402e-21 
        </DataArray>
      </PointData>
      <CellData>
        <DataArray type="Int32" Name="ElementTag" format="ascii">
          97
          98
          99
          100
          101
          102
          103
          104
          105
          106
          107
          108
          109
          110
          111
          112
          113
          114
          115
          116
          117
          118
          119
          120
        </DataArray>
      </CellData>
    </Piece>
  </UnstructuredGrid>
</VTKFile>
