<?xml version="1.0"?>
<VTKFile type="UnstructuredGrid" version="1.0" byte_order="LittleEndian" compressor="vtkZLibDataCompressor">
  <UnstructuredGrid>
    <Piece NumberOfPoints="250" NumberOfCells="196">
      <Points>
        <DataArray type="Float32" Name="Points" NumberOfComponents="3" format="ascii">
          0.0000000000e+00 0.0000000000e+00 0.0000000000e+00 
          1.0000000000e+01 0.0000000000e+00 0.0000000000e+00 
          1.0000000000e+01 8.0000000000e-01 0.0000000000e+00 
          0.0000000000e+00 8.0000000000e-01 0.0000000000e+00 
          2.0408163265e-01 0.0000000000e+00 0.0000000000e+00 
          4.0816326531e-01 0.0000000000e+00 0.0000000000e+00 
          6.1224489796e-01 0.0000000000e+00 0.0000000000e+00 
          8.1632653061e-01 0.0000000000e+00 0.0000000000e+00 
          1.0204081633e+00 0.0000000000e+00 0.0000000000e+00 
          1.2244897959e+00 0.0000000000e+00 0.0000000000e+00 
          1.4285714286e+00 0.0000000000e+00 0.0000000000e+00 
          1.6326530612e+00 0.0000000000e+00 0.0000000000e+00 
          1.8367346939e+00 0.0000000000e+00 0.0000000000e+00 
          2.0408163265e+00 0.0000000000e+00 0.0000000000e+00 
          2.2448979592e+00 0.0000000000e+00 0.0000000000e+00 
          2.4489795918e+00 0.0000000000e+00 0.0000000000e+00 
          2.6530612245e+00 0.0000000000e+00 0.0000000000e+00 
          2.8571428571e+00 0.0000000000e+00 0.0000000000e+00 
          3.0612244898e+00 0.0000000000e+00 0.0000000000e+00 
          3.2653061224e+00 0.0000000000e+00 0.0000000000e+00 
          3.4693877551e+00 0.0000000000e+00 0.0000000000e+00 
          3.6734693877e+00 0.0000000000e+00 0.0000000000e+00 
          3.8775510204e+00 0.0000000000e+00 0.0000000000e+00 
          4.0816326531e+00 0.0000000000e+00 0.0000000000e+00 
          4.2857142857e+00 0.0000000000e+00 0.0000000000e+00 
          4.4897959184e+00 0.0000000000e+00 0.0000000000e+00 
          4.6938775510e+00 0.0000000000e+00 0.0000000000e+00 
          4.8979591837e+00 0.0000000000e+00 0.0000000000e+00 
          5.1020408163e+00 0.0000000000e+00 0.0000000000e+00 
          5.3061224490e+00 0.0000000000e+00 0.0000000000e+00 
          5.5102040816e+00 0.0000000000e+00 0.0000000000e+00 
          5.7142857143e+00 0.0000000000e+00 0.0000000000e+00 
          5.9183673469e+00 0.0000000000e+00 0.0000000000e+00 
          6.1224489796e+00 0.0000000000e+00 0.0000000000e+00 
          6.3265306122e+00 0.0000000000e+00 0.0000000000e+00 
          6.5306122449e+00 0.0000000000e+00 0.0000000000e+00 
          6.7346938775e+00 0.0000000000e+00 0.0000000000e+00 
          6.9387755102e+00 0.0000000000e+00 0.0000000000e+00 
          7.1428571429e+00 0.0000000000e+00 0.0000000000e+00 
          7.3469387755e+00 0.0000000000e+00 0.0000000000e+00 
          7.5510204082e+00 0.0000000000e+00 0.0000000000e+00 
          7.7551020408e+00 0.0000000000e+00 0.0000000000e+00 
          7.9591836735e+00 0.0000000000e+00 0.0000000000e+00 
          8.1632653061e+00 0.0000000000e+00 0.0000000000e+00 
          8.3673469388e+00 0.0000000000e+00 0.0000000000e+00 
          8.5714285714e+00 0.0000000000e+00 0.0000000000e+00 
          8.7755102041e+00 0.0000000000e+00 0.0000000000e+00 
          8.9795918367e+00 0.0000000000e+00 0.0000000000e+00 
          9.1836734694e+00 0.0000000000e+00 0.0000000000e+00 
          9.3877551020e+00 0.0000000000e+00 0.0000000000e+00 
          9.5918367347e+00 0.0000000000e+00 0.0000000000e+00 
          9.7959183673e+00 0.0000000000e+00 0.0000000000e+00 
          1.0000000000e+01 2.0000000000e-01 0.0000000000e+00 
          1.0000000000e+01 4.0000000000e-01 0.0000000000e+00 
          1.0000000000e+01 6.0000000000e-01 0.0000000000e+00 
          9.7959183673e+00 8.0000000000e-01 0.0000000000e+00 
          9.5918367347e+00 8.0000000000e-01 0.0000000000e+00 
          9.3877551020e+00 8.0000000000e-01 0.0000000000e+00 
          9.1836734694e+00 8.0000000000e-01 0.0000000000e+00 
          8.9795918367e+00 8.0000000000e-01 0.0000000000e+00 
          8.7755102041e+00 8.0000000000e-01 0.0000000000e+00 
          8.5714285714e+00 8.0000000000e-01 0.0000000000e+00 
          8.3673469388e+00 8.0000000000e-01 0.0000000000e+00 
          8.1632653061e+00 8.0000000000e-01 0.0000000000e+00 
          7.9591836735e+00 8.0000000000e-01 0.0000000000e+00 
          7.7551020408e+00 8.0000000000e-01 0.0000000000e+00 
          7.5510204082e+00 8.0000000000e-01 0.0000000000e+00 
          7.3469387755e+00 8.0000000000e-01 0.0000000000e+00 
          7.1428571429e+00 8.0000000000e-01 0.0000000000e+00 
          6.9387755102e+00 8.0000000000e-01 0.0000000000e+00 
          6.7346938776e+00 8.0000000000e-01 0.0000000000e+00 
          6.5306122449e+00 8.0000000000e-01 0.0000000000e+00 
          6.3265306122e+00 8.0000000000e-01 0.0000000000e+00 
          6.1224489796e+00 8.0000000000e-01 0.0000000000e+00 
          5.9183673469e+00 8.0000000000e-01 0.0000000000e+00 
          5.7142857143e+00 8.0000000000e-01 0.0000000000e+00 
          5.5102040816e+00 8.0000000000e-01 0.0000000000e+00 
          5.3061224490e+00 8.0000000000e-01 0.0000000000e+00 
          5.1020408163e+00 8.0000000000e-01 0.0000000000e+00 
          4.8979591837e+00 8.0000000000e-01 0.0000000000e+00 
          4.6938775510e+00 8.0000000000e-01 0.0000000000e+00 
          4.4897959184e+00 8.0000000000e-01 0.0000000000e+00 
          4.2857142857e+00 8.0000000000e-01 0.0000000000e+00 
          4.0816326531e+00 8.0000000000e-01 0.0000000000e+00 
          3.8775510204e+00 8.0000000000e-01 0.0000000000e+00 
          3.6734693878e+00 8.0000000000e-01 0.0000000000e+00 
          3.4693877551e+00 8.0000000000e-01 0.0000000000e+00 
          3.2653061224e+00 8.0000000000e-01 0.0000000000e+00 
          3.0612244898e+00 8.0000000000e-01 0.0000000000e+00 
          2.8571428571e+00 8.0000000000e-01 0.0000000000e+00 
          2.6530612245e+00 8.0000000000e-01 0.0000000000e+00 
          2.4489795918e+00 8.0000000000e-01 0.0000000000e+00 
          2.2448979592e+00 8.0000000000e-01 0.0000000000e+00 
          2.0408163265e+00 8.0000000000e-01 0.0000000000e+00 
          1.8367346939e+00 8.0000000000e-01 0.0000000000e+00 
          1.6326530612e+00 8.0000000000e-01 0.0000000000e+00 
          1.4285714286e+00 8.0000000000e-01 0.0000000000e+00 
          1.2244897959e+00 8.0000000000e-01 0.0000000000e+00 
          1.0204081633e+00 8.0000000000e-01 0.0000000000e+00 
          8.1632653061e-01 8.0000000000e-01 0.0000000000e+00 
          6.1224489796e-01 8.0000000000e-01 0.0000000000e+00 
          4.0816326531e-01 8.0000000000e-01 0.0000000000e+00 
          2.0408163265e-01 8.0000000000e-01 0.0000000000e+00 
          0.0000000000e+00 6.0000000000e-01 0.0000000000e+00 
          0.0000000000e+00 4.0000000000e-01 0.0000000000e+00 
          0.0000000000e+00 2.0000000000e-01 0.0000000000e+00 
          2.0408163265e-01 2.0000000000e-01 0.0000000000e+00 
          2.0408163265e-01 4.0000000000e-01 0.0000000000e+00 
          2.0408163265e-01 6.0000000000e-01 0.0000000000e+00 
          4.0816326531e-01 2.0000000000e-01 0.0000000000e+00 
          4.0816326531e-01 4.0000000000e-01 0.0000000000e+00 
          4.0816326531e-01 6.0000000000e-01 0.0000000000e+00 
          6.1224489796e-01 2.0000000000e-01 0.0000000000e+00 
          6.1224489796e-01 4.0000000000e-01 0.0000000000e+00 
          6.1224489796e-01 6.0000000000e-01 0.0000000000e+00 
          8.1632653061e-01 2.0000000000e-01 0.0000000000e+00 
          8.1632653061e-01 4.0000000000e-01 0.0000000000e+00 
          8.1632653061e-01 6.0000000000e-01 0.0000000000e+00 
          1.0204081633e+00 2.0000000000e-01 0.0000000000e+00 
          1.0204081633e+00 4.0000000000e-01 0.0000000000e+00 
          1.0204081633e+00 6.0000000000e-01 0.0000000000e+00 
          1.2244897959e+00 2.0000000000e-01 0.0000000000e+00 
          1.2244897959e+00 4.0000000000e-01 0.0000000000e+00 
          1.2244897959e+00 6.0000000000e-01 0.0000000000e+00 
          1.4285714286e+00 2.0000000000e-01 0.0000000000e+00 
          1.4285714286e+00 4.0000000000e-01 0.0000000000e+00 
          1.4285714286e+00 6.0000000000e-01 0.0000000000e+00 
          1.6326530612e+00 2.0000000000e-01 0.0000000000e+00 
          1.6326530612e+00 4.0000000000e-01 0.0000000000e+00 
          1.6326530612e+00 6.0000000000e-01 0.0000000000e+00 
          1.8367346939e+00 2.0000000000e-01 0.0000000000e+00 
          1.8367346939e+00 4.0000000000e-01 0.0000000000e+00 
          1.8367346939e+00 6.0000000000e-01 0.0000000000e+00 
          2.0408163265e+00 2.0000000000e-01 0.0000000000e+00 
          2.0408163265e+00 4.0000000000e-01 0.0000000000e+00 
          2.0408163265e+00 6.0000000000e-01 0.0000000000e+00 
          2.2448979592e+00 2.0000000000e-01 0.0000000000e+00 
          2.2448979592e+00 4.0000000000e-01 0.0000000000e+00 
          2.2448979592e+00 6.0000000000e-01 0.0000000000e+00 
          2.4489795918e+00 2.0000000000e-01 0.0000000000e+00 
          2.4489795918e+00 4.0000000000e-01 0.0000000000e+00 
          2.4489795918e+00 6.0000000000e-01 0.0000000000e+00 
          2.6530612245e+00 2.0000000000e-01 0.0000000000e+00 
          2.6530612245e+00 4.0000000000e-01 0.0000000000e+00 
          2.6530612245e+00 6.0000000000e-01 0.0000000000e+00 
          2.8571428571e+00 2.0000000000e-01 0.0000000000e+00 
          2.8571428571e+00 4.0000000000e-01 0.0000000000e+00 
          2.8571428571e+00 6.0000000000e-01 0.0000000000e+00 
          3.0612244898e+00 2.0000000000e-01 0.0000000000e+00 
          3.0612244898e+00 4.0000000000e-01 0.0000000000e+00 
          3.0612244898e+00 6.0000000000e-01 0.0000000000e+00 
          3.2653061224e+00 2.0000000000e-01 0.0000000000e+00 
          3.2653061224e+00 4.0000000000e-01 0.0000000000e+00 
          3.2653061224e+00 6.0000000000e-01 0.0000000000e+00 
          3.4693877551e+00 2.0000000000e-01 0.0000000000e+00 
          3.4693877551e+00 4.0000000000e-01 0.0000000000e+00 
[...]
      <PointData>
        <DataArray type="Int32" Name="NodeTag" format="ascii">
          1
          2
          3
          4
          5
          6
          7
          8
          9
          10
          11
          12
          13
          14
          15
          16
          17
          18
          19
          20
          21
          22
          23
          24
          25
          26
          27
          28
          29
          30
          31
          32
          33
          34
          35
          36
          37
          38
          39
          40
          41
          42
          43
          44
          45
          46
          47
          48
          49
          50
          51
          52
          53
          54
          55
          56
          57
          58
          59
          60
          61
          62
          63
          64
          65
          66
          67
          68
          69
          70
          71
          72
          73
          74
          75
          76
          77
          78
          79
          80
          81
          82
          83
          84
          85
          86
          87
          88
          89
          90
          91
          92
          93
          94
          95
          96
          97
          98
          99
          100
          101
          102
          103
          104
          105
          106
          107
          108
          109
          110
          111
          112
          113
          114
          115
          116
          117
          118
          119
          120
          121
          122
          123
          124
          125
          126
          127
          128
          129
          130
          131
          132
          133
          134
          135
          136
          137
          138
          139
          140
          141
          142
          143
          144
          145
          146
          147
          148
          149
          150
          151
          152
          153
          154
          155
          156
          157
          158
          159
          160
          161
          162
          163
          164
          165
          166
          167
          168
          169
          170
          171
          172
          173
          174
          175
          176
          177
          178
          179
          180
          181
          182
          183
          184
          185
          186
          187
          188
          189
          190
          191
          192
          193
          194
          195
          196
          197
          198
          199
          200
          201
          202
          203
          204
          205
          206
          207
          208
          209
          210
          211
          212
          213
          214
          215
          216
          217
          218
          219
          220
          221
          222
          223
          224
          225
          226
          227
          228
          229
          230
          231
          232
          233
          234
          235
          236
          237
          238
          239
          240
          241
          242
          243
          244
          245
          246
          247
          248
          249
          250
        </DataArray>
        <DataArray type="Float32" Name="AllDisplacement" NumberOfComponents="3" format="ascii">
          0.0000000000e+00 0.0000000000e+00 0.0000000000e+00 
          -2.5523576288e-03 -4.7973822007e-02 0.0000000000e+00 
          2.5558609395e-03 -4.7975116332e-02 0.0000000000e+00 
          0.0000000000e+00 0.0000000000e+00 0.0000000000e+00 
          -1.5314463332e-04 -6.7933018381e-05 0.0000000000e+00 
          -2.9735478120e-04 -1.9124541543e-04 0.0000000000e+00 
          -4.3666826628e-04 -3.8731612616e-04 0.0000000000e+00 
          -5.7037421916e-04 -6.5286929220e-04 0.0000000000e+00 
          -6.9831128979e-04 -9.8507628033e-04 0.0000000000e+00 
          -8.2061813312e-04 -1.3809390445e-03 0.0000000000e+00 
          -9.3742569848e-04 -1.8376286429e-03 0.0000000000e+00 
          -1.0488616121e-03 -2.3523714678e-03 0.0000000000e+00 
          -1.1550521253e-03 -2.9224596980e-03 0.0000000000e+00 
          -1.2561235726e-03 -3.5452492974e-03 0.0000000000e+00 
          -1.3522023208e-03 -4.2181607365e-03 0.0000000000e+00 
          -1.4434147605e-03 -4.9386789525e-03 0.0000000000e+00 
          -1.5298872885e-03 -5.7043533761e-03 0.0000000000e+00 
          -1.6117463030e-03 -6.5127979284e-03 0.0000000000e+00 
          -1.6891182019e-03 -7.3616910205e-03 0.0000000000e+00 
          -1.7621293831e-03 -8.2487755520e-03 0.0000000000e+00 
          -1.8309062442e-03 -9.1718589113e-03 0.0000000000e+00 
          -1.8955751827e-03 -1.0128812975e-02 0.0000000000e+00 
          -1.9562625965e-03 -1.1117574110e-02 0.0000000000e+00 
          -2.0130948829e-03 -1.2136143168e-02 0.0000000000e+00 
          -2.0661984397e-03 -1.3182585493e-02 0.0000000000e+00 
          -2.1156996645e-03 -1.4255030917e-02 0.0000000000e+00 
          -2.1617249548e-03 -1.5351673758e-02 0.0000000000e+00 
          -2.2044007083e-03 -1.6470772825e-02 0.0000000000e+00 
          -2.2438533227e-03 -1.7610651416e-02 0.0000000000e+00 
          -2.2802091954e-03 -1.8769697315e-02 0.0000000000e+00 
          -2.3135947243e-03 -1.9946362797e-02 0.0000000000e+00 
          -2.3441363067e-03 -2.1139164624e-02 0.0000000000e+00 
          -2.3719603405e-03 -2.2346684048e-02 0.0000000000e+00 
          -2.3971932231e-03 -2.3567566809e-02 0.0000000000e+00 
          -2.4199613522e-03 -2.4800523134e-02 0.0000000000e+00 
          -2.4403911254e-03 -2.6044327741e-02 0.0000000000e+00 
          -2.4586089404e-03 -2.7297819836e-02 0.0000000000e+00 
          -2.4747411948e-03 -2.8559903113e-02 0.0000000000e+00 
          -2.4889142861e-03 -2.9829545754e-02 0.0000000000e+00 
          -2.5012546119e-03 -3.1105780431e-02 0.0000000000e+00 
          -2.5118885693e-03 -3.2387704304e-02 0.0000000000e+00 
          -2.5209425550e-03 -3.3674479019e-02 0.0000000000e+00 
          -2.5285429659e-03 -3.4965330712e-02 0.0000000000e+00 
          -2.5348162037e-03 -3.6259549997e-02 0.0000000000e+00 
          -2.5398886906e-03 -3.7556491980e-02 0.0000000000e+00 
          -2.5438868981e-03 -3.8855576292e-02 0.0000000000e+00 
          -2.5469373535e-03 -4.0156287233e-02 0.0000000000e+00 
          -2.5491664265e-03 -4.1458174043e-02 0.0000000000e+00 
          -2.5506993575e-03 -4.2760851121e-02 0.0000000000e+00 
          -2.5516576028e-03 -4.4063995669e-02 0.0000000000e+00 
          -2.5521588799e-03 -4.5367338424e-02 0.0000000000e+00 
          -2.5523339405e-03 -4.6670654108e-02 0.0000000000e+00 
          -1.2753288079e-03 -4.7973843777e-02 0.0000000000e+00 
          1.5724602642e-06 -4.7974002968e-02 0.0000000000e+00 
          1.2785129198e-03 -4.7974425187e-02 0.0000000000e+00 
          2.5556537622e-03 -4.6671360681e-02 0.0000000000e+00 
          2.5553020632e-03 -4.5367975327e-02 0.0000000000e+00 
          2.5546886942e-03 -4.4064628924e-02 0.0000000000e+00 
          2.5536520427e-03 -4.2761495895e-02 0.0000000000e+00 
          2.5520517754e-03 -4.1458825135e-02 0.0000000000e+00 
          2.5497571525e-03 -4.0156940420e-02 0.0000000000e+00 
          2.5466407352e-03 -3.8856229829e-02 0.0000000000e+00 
          2.5425761093e-03 -3.7557145445e-02 0.0000000000e+00 
          2.5374370036e-03 -3.6260203377e-02 0.0000000000e+00 
          2.5310970941e-03 -3.4965984054e-02 0.0000000000e+00 
          2.5234300077e-03 -3.3675132352e-02 0.0000000000e+00 
          2.5143093510e-03 -3.2388357635e-02 0.0000000000e+00 
          2.5036087256e-03 -3.1106433763e-02 0.0000000000e+00 
          2.4912017330e-03 -2.9830199087e-02 0.0000000000e+00 
          2.4769619751e-03 -2.8560556446e-02 0.0000000000e+00 
          2.4607630542e-03 -2.7298473170e-02 0.0000000000e+00 
          2.4424785725e-03 -2.6044981075e-02 0.0000000000e+00 
          2.4219821326e-03 -2.4801176467e-02 0.0000000000e+00 
          2.3991473368e-03 -2.3568220142e-02 0.0000000000e+00 
          2.3738477876e-03 -2.2347337381e-02 0.0000000000e+00 
          2.3459570872e-03 -2.1139817957e-02 0.0000000000e+00 
          2.3153488380e-03 -1.9947016130e-02 0.0000000000e+00 
          2.2818966426e-03 -1.8770350648e-02 0.0000000000e+00 
          2.2454741031e-03 -1.7611304749e-02 0.0000000000e+00 
          2.2059548221e-03 -1.6471426159e-02 0.0000000000e+00 
          2.1632124019e-03 -1.5352327091e-02 0.0000000000e+00 
          2.1171204449e-03 -1.4255684250e-02 0.0000000000e+00 
          2.0675525535e-03 -1.3183238827e-02 0.0000000000e+00 
          2.0143823300e-03 -1.2136796501e-02 0.0000000000e+00 
          1.9574833769e-03 -1.1118227443e-02 0.0000000000e+00 
          1.8967292965e-03 -1.0129466309e-02 0.0000000000e+00 
          1.8319936913e-03 -9.1725122447e-03 0.0000000000e+00 
          1.7631501635e-03 -8.2494288854e-03 0.0000000000e+00 
          1.6900723156e-03 -7.3623443539e-03 0.0000000000e+00 
          1.6126337500e-03 -6.5134512621e-03 0.0000000000e+00 
          1.5307080692e-03 -5.7050067101e-03 0.0000000000e+00 
          1.4441688761e-03 -4.9393322866e-03 0.0000000000e+00 
          1.3528897735e-03 -4.2188140678e-03 0.0000000000e+00 
          1.2567443631e-03 -3.5459026156e-03 0.0000000000e+00 
          1.1556062388e-03 -2.9231129813e-03 0.0000000000e+00 
          1.0493489789e-03 -2.3530247028e-03 0.0000000000e+00 
          9.3784613155e-04 -1.8382819414e-03 0.0000000000e+00 
          8.2097136583e-04 -1.3815929981e-03 0.0000000000e+00 
          6.9859763092e-04 -9.8573259134e-04 0.0000000000e+00 
          5.7059710427e-04 -6.5353068556e-04 0.0000000000e+00 
          4.3684026002e-04 -3.8798141485e-04 0.0000000000e+00 
          2.9750328489e-04 -1.9188515527e-04 0.0000000000e+00 
          1.5329266323e-04 -6.8453512113e-05 0.0000000000e+00 
          0.0000000000e+00 0.0000000000e+00 0.0000000000e+00 
          0.0000000000e+00 0.0000000000e+00 0.0000000000e+00 
          0.0000000000e+00 0.0000000000e+00 0.0000000000e+00 
          -7.0904515130e-05 -4.4584560234e-05 0.0000000000e+00 
          -1.0431605531e-08 -3.8773281669e-05 0.0000000000e+00 
          7.0894043390e-05 -4.4794452314e-05 0.0000000000e+00 
          -1.4511672022e-04 -1.7033777277e-04 0.0000000000e+00 
          2.1020279260e-08 -1.6281038065e-04 0.0000000000e+00 
          1.4519295088e-04 -1.7066036694e-04 0.0000000000e+00 
          -2.1521620471e-04 -3.6716336129e-04 0.0000000000e+00 
          6.7863934199e-08 -3.6059498452e-04 0.0000000000e+00 
          2.1536701287e-04 -3.6750066509e-04 0.0000000000e+00 
          -2.8210346086e-04 -6.3367720405e-04 0.0000000000e+00 
          1.0809812822e-07 -6.2736693994e-04 0.0000000000e+00 
          2.8232396486e-04 -6.3401051065e-04 0.0000000000e+00 
          -3.4611316163e-04 -9.6670562554e-04 0.0000000000e+00 
          1.4363346286e-07 -9.6068154363e-04 0.0000000000e+00 
          3.4640086192e-04 -9.6703459164e-04 0.0000000000e+00 
          -4.0731576890e-04 -1.3633872041e-03 0.0000000000e+00 
          1.7729756000e-07 -1.3576313316e-03 0.0000000000e+00 
          4.0767005977e-04 -1.3637143027e-03 0.0000000000e+00 
          -4.6576996623e-04 -1.8208751475e-03 0.0000000000e+00 
          2.1053516454e-07 -1.8153857051e-03 0.0000000000e+00 
          4.6619081238e-04 -1.8212017605e-03 0.0000000000e+00 
          -5.2153813725e-04 -2.3363984321e-03 0.0000000000e+00 
          2.4377321775e-07 -2.3311690373e-03 0.0000000000e+00 
          5.2202559824e-04 -2.3367250141e-03 0.0000000000e+00 
          -5.7468352239e-04 -2.9072484494e-03 0.0000000000e+00 
          2.7706595851e-07 -2.9022730278e-03 0.0000000000e+00 
          5.7523763549e-04 -2.9075750760e-03 0.0000000000e+00 
          -6.2526934774e-04 -3.5307812730e-03 0.0000000000e+00 
          3.1038892512e-07 -3.5260536023e-03 0.0000000000e+00 
          6.2589012604e-04 -3.5311079283e-03 0.0000000000e+00 
          -6.7335881926e-04 -4.2044173505e-03 0.0000000000e+00 
          3.4372168099e-07 -4.1999312312e-03 0.0000000000e+00 
          6.7404626526e-04 -4.2047440160e-03 0.0000000000e+00 
          -7.1901513686e-04 -4.9256416241e-03 0.0000000000e+00 
          3.7705601371e-07 -4.9213908580e-03 0.0000000000e+00 
          7.1976925030e-04 -4.9259682915e-03 0.0000000000e+00 
          -7.6230149942e-04 -5.6920035243e-03 0.0000000000e+00 
          4.1038997424e-07 -5.6879819170e-03 0.0000000000e+00 
          7.6312227981e-04 -5.6923301916e-03 0.0000000000e+00 
          -8.0328110561e-04 -6.5011169728e-03 0.0000000000e+00 
          4.4372352785e-07 -6.4973183308e-03 0.0000000000e+00 
          8.0416855273e-04 -6.5014436397e-03 0.0000000000e+00 
          -8.4201715416e-04 -7.3506603806e-03 0.0000000000e+00 
          4.7705690335e-07 -7.3470785104e-03 0.0000000000e+00 
          8.4297126794e-04 -7.3509870473e-03 0.0000000000e+00 
          -8.7857284385e-04 -8.2383766474e-03 0.0000000000e+00 
          5.1039023194e-07 -8.2350053556e-03 0.0000000000e+00 
          8.7959362429e-04 -8.2387033141e-03 0.0000000000e+00 
          -9.1301137348e-04 -9.1620731615e-03 0.0000000000e+00 
          5.4372355720e-07 -9.1589062546e-03 0.0000000000e+00 
          9.1409882058e-04 -9.1623998282e-03 0.0000000000e+00 
          -9.4539594186e-04 -1.0119621800e-02 0.0000000000e+00 
          5.7705688657e-07 -1.0116653085e-02 0.0000000000e+00 
          9.4655005563e-04 -1.0119948467e-02 0.0000000000e+00 
          -9.7578974780e-04 -1.1108958928e-02 0.0000000000e+00 
          6.1039021863e-07 -1.1106182211e-02 0.0000000000e+00 
          9.7701052823e-04 -1.1109285595e-02 0.0000000000e+00 
          -1.0042559901e-03 -1.2128085400e-02 0.0000000000e+00 
          6.4372355166e-07 -1.2125494487e-02 0.0000000000e+00 
          1.0055434372e-03 -1.2128412067e-02 0.0000000000e+00 
          -1.0308578676e-03 -1.3175066558e-02 0.0000000000e+00 
          6.7705688487e-07 -1.3172655256e-02 0.0000000000e+00 
          1.0322119814e-03 -1.3175393225e-02 0.0000000000e+00 
          -1.0556585790e-03 -1.4248032234e-02 0.0000000000e+00 
          7.1039021805e-07 -1.4245794350e-02 0.0000000000e+00 
          1.0570793595e-03 -1.4248358901e-02 0.0000000000e+00 
          -1.0787213233e-03 -1.5345176748e-02 0.0000000000e+00 
          7.4372355119e-07 -1.5343106087e-02 0.0000000000e+00 
          1.0802087704e-03 -1.5345503414e-02 0.0000000000e+00 
          -1.1001092991e-03 -1.6464758907e-02 0.0000000000e+00 
          7.7705688430e-07 -1.6462849277e-02 0.0000000000e+00 
          1.1016634129e-03 -1.6465085573e-02 0.0000000000e+00 
          -1.1198857054e-03 -1.7605102008e-02 0.0000000000e+00 
          8.1039021740e-07 -1.7603347216e-02 0.0000000000e+00 
          1.1215064858e-03 -1.7605428675e-02 0.0000000000e+00 
          -1.1381137409e-03 -1.8764593838e-02 0.0000000000e+00 
          8.4372355048e-07 -1.8762987689e-02 0.0000000000e+00 
          1.1398011880e-03 -1.8764920505e-02 0.0000000000e+00 
          -1.1548566043e-03 -1.9941686671e-02 0.0000000000e+00 
          8.7705688354e-07 -1.9940222972e-02 0.0000000000e+00 
          1.1566107181e-03 -1.9942013337e-02 0.0000000000e+00 
          -1.1701774947e-03 -2.1134897268e-02 0.0000000000e+00 
          9.1039021656e-07 -2.1133569825e-02 0.0000000000e+00 
          1.1719982751e-03 -2.1135223934e-02 0.0000000000e+00 
          -1.1841396106e-03 -2.2342806881e-02 0.0000000000e+00 
          9.4372354949e-07 -2.2341609502e-02 0.0000000000e+00 
          1.1860270577e-03 -2.2343133548e-02 0.0000000000e+00 
          -1.1968061510e-03 -2.3564061251e-02 0.0000000000e+00 
          9.7705688246e-07 -2.3562987741e-02 0.0000000000e+00 
          1.1987602648e-03 -2.3564387917e-02 0.0000000000e+00 
          -1.2082403146e-03 -2.4797370605e-02 0.0000000000e+00 
          1.0103902161e-06 -2.4796414771e-02 0.0000000000e+00 
          1.2102610951e-03 -2.4797697271e-02 0.0000000000e+00 
          -1.2185053004e-03 -2.6041509660e-02 0.0000000000e+00 
          1.0437235527e-06 -2.6040665310e-02 0.0000000000e+00 
          1.2205927475e-03 -2.6041836327e-02 0.0000000000e+00 
          -1.2276643069e-03 -2.7295317623e-02 0.0000000000e+00 
          1.0770568959e-06 -2.7294578561e-02 0.0000000000e+00 
          1.2298184207e-03 -2.7295644289e-02 0.0000000000e+00 
          -1.2357805332e-03 -2.8557698187e-02 0.0000000000e+00 
          1.1103902460e-06 -2.8557058221e-02 0.0000000000e+00 
          1.2380013136e-03 -2.8558024853e-02 0.0000000000e+00 
          -1.2429171779e-03 -2.9827619534e-02 0.0000000000e+00 
          1.1437235734e-06 -2.9827072471e-02 0.0000000000e+00 
          1.2452046250e-03 -2.9827946201e-02 0.0000000000e+00 
          -1.2491374399e-03 -3.1104114337e-02 0.0000000000e+00 
          1.1770567480e-06 -3.1103653982e-02 0.0000000000e+00 
          1.2514915537e-03 -3.1104441003e-02 0.0000000000e+00 
          -1.2545045181e-03 -3.2386279756e-02 0.0000000000e+00 
          1.2103894349e-06 -3.2385899916e-02 0.0000000000e+00 
          1.2569252983e-03 -3.2386606421e-02 0.0000000000e+00 
          -1.2590816115e-03 -3.3673277437e-02 0.0000000000e+00 
          1.2437212006e-06 -3.3672971919e-02 0.0000000000e+00 
          1.2615690576e-03 -3.3673604103e-02 0.0000000000e+00 
          -1.2629319192e-03 -3.4964333516e-02 0.0000000000e+00 
          1.2770527871e-06 -3.4964096130e-02 0.0000000000e+00 
          1.2654860301e-03 -3.4964660189e-02 0.0000000000e+00 
          -1.2661186392e-03 -3.6258738610e-02 0.0000000000e+00 
          1.3103908316e-06 -3.6258563173e-02 0.0000000000e+00 
          1.2687394152e-03 -3.6259065313e-02 0.0000000000e+00 
          -1.2687049658e-03 -3.7555847823e-02 0.0000000000e+00 
          1.3437583965e-06 -3.7555728164e-02 0.0000000000e+00 
          1.2713924164e-03 -3.7556174597e-02 0.0000000000e+00 
          -1.2707540832e-03 -3.8855080778e-02 0.0000000000e+00 
          1.3772037615e-06 -3.8855010704e-02 0.0000000000e+00 
          1.2735082467e-03 -3.8855407628e-02 0.0000000000e+00 
          -1.2723291615e-03 -4.0155921718e-02 0.0000000000e+00 
          1.4107556529e-06 -4.0155894888e-02 0.0000000000e+00 
          1.2751501313e-03 -4.0156248340e-02 0.0000000000e+00 
          -1.2734934008e-03 -4.1457919764e-02 0.0000000000e+00 
          1.4441620239e-06 -4.1457929270e-02 0.0000000000e+00 
          1.2763812790e-03 -4.1458244796e-02 0.0000000000e+00 
          -1.2743102557e-03 -4.2760689012e-02 0.0000000000e+00 
          1.4760801724e-06 -4.2760726917e-02 0.0000000000e+00 
          1.2772647789e-03 -4.2761008882e-02 0.0000000000e+00 
          -1.2748440357e-03 -4.4063907704e-02 0.0000000000e+00 
          1.5028189348e-06 -4.4063965316e-02 0.0000000000e+00 
          1.2778630281e-03 -4.4064217949e-02 0.0000000000e+00 
          -1.2751567041e-03 -4.5367311520e-02 0.0000000000e+00 
          1.5173466772e-06 -4.5367392758e-02 0.0000000000e+00 
          1.2782347308e-03 -4.5367617235e-02 0.0000000000e+00 
          -1.2753006572e-03 -4.6670680121e-02 0.0000000000e+00 
          1.5322244032e-06 -4.6670816415e-02 0.0000000000e+00 
          1.2784125763e-03 -4.6671070707e-02 0.0000000000e+00 
        </DataArray>
        <DataArray type="Float32" Name="Displacement" NumberOfComponents="3" format="ascii">
          0.0000000000e+00 0.0000000000e+00 0.0000000000e+00 
          -2.5523576288e-03 -4.7973822007e-02 0.0000000000e+00 
          2.5558609395e-03 -4.7975116332e-02 0.0000000000e+00 
          0.0000000000e+00 0.0000000000e+00 0.0000000000e+00 
          -1.5314463332e-04 -6.7933018381e-05 0.0000000000e+00 
          -2.9735478120e-04 -1.9124541543e-04 0.0000000000e+00 
          -4.3666826628e-04 -3.8731612616e-04 0.0000000000e+00 