<?xml version="1.0"?>
<VTKFile type="UnstructuredGrid" version="1.0" byte_order="LittleEndian" compressor="vtkZLibDataCompressor">
  <UnstructuredGrid>
    <Piece NumberOfPoints="87" NumberOfCells="1">
      <Points>
        <DataArray type="Float32" Name="Points" NumberOfComponents="3" format="ascii">
          -4.0000000000e-01 -4.0000000000e-01 0.0000000000e+00 
          -2.5000000000e-02 -4.0000000000e-01 0.0000000000e+00 
          2.5000000000e-02 -4.0000000000e-01 0.0000000000e+00 
          4.0000000000e-01 -4.0000000000e-01 0.0000000000e+00 
          4.0000000000e-01 -3.0000000000e-01 0.0000000000e+00 
          2.5000000000e-02 -3.0000000000e-01 0.0000000000e+00 
          2.5000000000e-02 3.0000000000e-01 0.0000000000e+00 
          4.0000000000e-01 3.0000000000e-01 0.0000000000e+00 
          4.0000000000e-01 4.0000000000e-01 0.0000000000e+00 
          2.5000000000e-02 4.0000000000e-01 0.0000000000e+00 
          -2.5000000000e-02 4.0000000000e-01 0.0000000000e+00 
          -4.0000000000e-01 4.0000000000e-01 0.0000000000e+00 
          -4.0000000000e-01 3.0000000000e-01 0.0000000000e+00 
          -2.5000000000e-02 3.0000000000e-01 0.0000000000e+00 
          -2.5000000000e-02 -3.0000000000e-01 0.0000000000e+00 
          -4.0000000000e-01 -3.0000000000e-01 0.0000000000e+00 
          -2.1250000000e-01 -4.0000000000e-01 0.0000000000e+00 
          -3.0625000000e-01 -4.0000000000e-01 0.0000000000e+00 
          -1.1875000000e-01 -4.0000000000e-01 0.0000000000e+00 
          1.2500000000e-02 -4.0000000000e-01 0.0000000000e+00 
          2.1250000000e-01 -4.0000000000e-01 0.0000000000e+00 
          1.1875000000e-01 -4.0000000000e-01 0.0000000000e+00 
          3.0625000000e-01 -4.0000000000e-01 0.0000000000e+00 
          4.0000000000e-01 -3.5000000000e-01 0.0000000000e+00 
          2.1250000000e-01 -3.0000000000e-01 0.0000000000e+00 
          1.1875000000e-01 -3.0000000000e-01 0.0000000000e+00 
          3.0625000000e-01 -3.0000000000e-01 0.0000000000e+00 
          2.5000000000e-02 -1.5000000000e-01 0.0000000000e+00 
          2.5000000000e-02 2.2204460493e-16 0.0000000000e+00 
          2.5000000000e-02 1.5000000000e-01 0.0000000000e+00 
          2.5000000000e-02 -2.2500000000e-01 0.0000000000e+00 
          2.5000000000e-02 2.2500000000e-01 0.0000000000e+00 
          2.5000000000e-02 7.5000000000e-02 0.0000000000e+00 
          2.5000000000e-02 -7.5000000000e-02 0.0000000000e+00 
          2.1250000000e-01 3.0000000000e-01 0.0000000000e+00 
          3.0625000000e-01 3.0000000000e-01 0.0000000000e+00 
          1.1875000000e-01 3.0000000000e-01 0.0000000000e+00 
          4.0000000000e-01 3.5000000000e-01 0.0000000000e+00 
          2.1250000000e-01 4.0000000000e-01 0.0000000000e+00 
          3.0625000000e-01 4.0000000000e-01 0.0000000000e+00 
          1.1875000000e-01 4.0000000000e-01 0.0000000000e+00 
          -1.2500000000e-02 4.0000000000e-01 0.0000000000e+00 
          -2.1250000000e-01 4.0000000000e-01 0.0000000000e+00 
          -1.1875000000e-01 4.0000000000e-01 0.0000000000e+00 
          -3.0625000000e-01 4.0000000000e-01 0.0000000000e+00 
          -4.0000000000e-01 3.5000000000e-01 0.0000000000e+00 
          -2.1250000000e-01 3.0000000000e-01 0.0000000000e+00 
          -1.1875000000e-01 3.0000000000e-01 0.0000000000e+00 
          -3.0625000000e-01 3.0000000000e-01 0.0000000000e+00 
          -2.5000000000e-02 1.5000000000e-01 0.0000000000e+00 
          -2.5000000000e-02 -2.2204460493e-16 0.0000000000e+00 
          -2.5000000000e-02 -1.5000000000e-01 0.0000000000e+00 
          -2.5000000000e-02 -2.2500000000e-01 0.0000000000e+00 
          -2.5000000000e-02 2.2500000000e-01 0.0000000000e+00 
          -2.5000000000e-02 7.5000000000e-02 0.0000000000e+00 
          -2.5000000000e-02 -7.5000000000e-02 0.0000000000e+00 
          -2.1250000000e-01 -3.0000000000e-01 0.0000000000e+00 
          -3.0625000000e-01 -3.0000000000e-01 0.0000000000e+00 
          -1.1875000000e-01 -3.0000000000e-01 0.0000000000e+00 
          -4.0000000000e-01 -3.5000000000e-01 0.0000000000e+00 
          -4.6690010108e-02 -3.4919348322e-01 0.0000000000e+00 
          2.8644235190e-04 -2.9131490437e-01 0.0000000000e+00 
          4.7912398365e-02 -3.4928815348e-01 0.0000000000e+00 
          2.3070534552e-03 -3.4838282962e-01 0.0000000000e+00 
          -4.9464300275e-02 3.4920024872e-01 0.0000000000e+00 
          4.6609613299e-02 3.4920024872e-01 0.0000000000e+00 
          -3.9920822584e-04 2.9193115181e-01 0.0000000000e+00 
          -2.5589712160e-03 3.4845995896e-01 0.0000000000e+00 
          -1.2257182971e-05 -1.4982203841e-01 0.0000000000e+00 
          1.8270323449e-05 -2.2358807455e-01 0.0000000000e+00 
          -7.0482492447e-06 1.4982204437e-01 0.0000000000e+00 
          -6.4067934706e-05 2.2366511815e-01 0.0000000000e+00 
          -2.7418136597e-07 1.4910158773e-17 0.0000000000e+00 
          -9.6298754215e-07 7.4974703789e-02 0.0000000000e+00 
          -2.0670995582e-06 -7.4974703044e-02 0.0000000000e+00 
          -2.1300804615e-01 3.4999237061e-01 0.0000000000e+00 
          -1.2273848094e-01 3.4988381863e-01 0.0000000000e+00 
          -3.0632227957e-01 3.4999904633e-01 0.0000000000e+00 
          -2.1295845881e-01 -3.4999227524e-01 0.0000000000e+00 
          -3.0631531822e-01 -3.4999903440e-01 0.0000000000e+00 
          2.1295707226e-01 3.4999237061e-01 0.0000000000e+00 
          3.0631514490e-01 3.4999904633e-01 0.0000000000e+00 
          1.2228629552e-01 3.4988381863e-01 0.0000000000e+00 
          2.1300662890e-01 -3.4998563491e-01 0.0000000000e+00 
          1.2254201351e-01 -3.4988373586e-01 0.0000000000e+00 
          3.0632207112e-01 -3.4999801363e-01 0.0000000000e+00 
          -1.2229929154e-01 -3.4988277028e-01 0.0000000000e+00 
        </DataArray>
      </Points>
      <Cells>
        <DataArray type="Int32" Name="connectivity" format="ascii">
          0
          1
          2
          3
          4
          5
          6
          7
          8
          9
          10
          11
          12
          13
          14
          15
          16
          17
          18
          19
          20
          21
          22
          23
          24
          25
          26
          27
          28
          29
          30
          31
          32
          33
          34
          35
          36
          37
          38
          39
          40
          41
          42
          43
          44
          45
          46
          47
          48
          49
          50
          51
          52
          53
          54
          55
          56
          57
          58
          59
          60
          61
          62
          63
          64
          65
          66
          67
          68
          69
          70
          71
          72
          73
          74
          75
          76
          77
          78
          79
          80
          81
          82
          83
          84
          85
          86
        </DataArray>
        <DataArray type="Int32" Name="offsets" format="ascii">
          87
        </DataArray>
        <DataArray type="Int32" Name="types" format="ascii">
          2
        </DataArray>
      </Cells>
      <PointData>
        <DataArray type="Int32" Name="NodeTag" format="ascii">
          1
          2
          3
          4
          5
          6
          7
          8
          9
          10
          11
          12
          13
          14
          15
          16
          17
          18
          19
          20
          21
          22
          23
          24
          25
          26
          27
          28
          29
          30
          31
          32
          33
          34
          35
          36
          37
          38
          39
          40
          41
          42
          43
          44
          45
          46
          47
          48
          49
          50
          51
          52
          53
          54
          55
          56
          57
          58
          59
          60
          61
          62
          63
          64
          65
          66
          67
          68
          69
          70
          71
          72
          73
          74
          75
          76
          77
          78
          79
          80
          81
          82
          83
          84
          85
          86
          87
        </DataArray>
        <DataArray type="Float32" Name="AllDisplacement" NumberOfComponents="3" format="ascii">
          0.0000000000e+00 0.0000000000e+00 0.0000000000e+00 
          -3.8620997445e-04 -1.6814123144e-03 0.0000000000e+00 
          -4.3500791268e-04 -2.0567924194e-03 0.0000000000e+00 
          -6.3579077249e-04 -6.1548178289e-03 0.0000000000e+00 
          5.8438083941e-04 -6.1548849209e-03 0.0000000000e+00 
          3.7521019883e-04 -2.0324428431e-03 0.0000000000e+00 
          -3.7541229443e-04 -2.0313177083e-03 0.0000000000e+00 
          -5.8353153719e-04 -6.1496947839e-03 0.0000000000e+00 
          6.3524841885e-04 -6.1496229484e-03 0.0000000000e+00 
          4.3328492035e-04 -2.0594924636e-03 0.0000000000e+00 
          3.8596184854e-04 -1.6781180128e-03 0.0000000000e+00 
          0.0000000000e+00 0.0000000000e+00 0.0000000000e+00 
          0.0000000000e+00 0.0000000000e+00 0.0000000000e+00 
          -3.5311061273e-04 -1.7029689391e-03 0.0000000000e+00 
          3.5345718953e-04 -1.7037192818e-03 0.0000000000e+00 
          0.0000000000e+00 0.0000000000e+00 0.0000000000e+00 
          -2.4626207424e-04 -4.9819601396e-04 0.0000000000e+00 
          -1.3490446069e-04 -1.4167531930e-04 0.0000000000e+00 
          -3.3085442587e-04 -1.0331987787e-03 0.0000000000e+00 
          -4.1875852939e-04 -1.9597739214e-03 0.0000000000e+00 
          -5.8488624091e-04 -3.9099894614e-03 0.0000000000e+00 
          -5.1877165442e-04 -2.9072160086e-03 0.0000000000e+00 
          -6.2273771923e-04 -5.0080763202e-03 0.0000000000e+00 
          -2.5705589191e-05 -6.1535261744e-03 0.0000000000e+00 
          5.3279181498e-04 -3.9099449563e-03 0.0000000000e+00 
          4.7012409292e-04 -2.9102843799e-03 0.0000000000e+00 
          5.7144103615e-04 -5.0079683843e-03 0.0000000000e+00 
          6.1684318083e-04 -1.8182732739e-03 0.0000000000e+00 
          2.5511030193e-06 -1.7462911636e-03 0.0000000000e+00 
          -6.1296819561e-04 -1.8179055005e-03 0.0000000000e+00 
          6.5129654309e-04 -1.9082497738e-03 0.0000000000e+00 
          -6.4873713455e-04 -1.9076285384e-03 0.0000000000e+00 
          -3.5845251471e-04 -1.7639772457e-03 0.0000000000e+00 
          3.6327398747e-04 -1.7641530811e-03 0.0000000000e+00 
          -5.3190327912e-04 -3.9073280236e-03 0.0000000000e+00 
          -5.7060790889e-04 -5.0040733137e-03 0.0000000000e+00 
          -4.6934860774e-04 -2.9092954522e-03 0.0000000000e+00 
          2.5852771996e-05 -6.1483291700e-03 0.0000000000e+00 
          5.8438328216e-04 -3.9074796242e-03 0.0000000000e+00 
          6.2218168125e-04 -5.0041791980e-03 0.0000000000e+00 
          5.1820125497e-04 -2.9054052741e-03 0.0000000000e+00 
          4.0196736534e-04 -1.7702642928e-03 0.0000000000e+00 
          2.4614362287e-04 -4.9775428443e-04 0.0000000000e+00 
          3.3063526587e-04 -1.0328437302e-03 0.0000000000e+00 
          1.3480028704e-04 -1.4155150961e-04 0.0000000000e+00 
          0.0000000000e+00 0.0000000000e+00 0.0000000000e+00 
          -2.2632764151e-04 -4.9718393357e-04 0.0000000000e+00 
          -3.0352247203e-04 -1.0273012925e-03 0.0000000000e+00 
          -1.2532927315e-04 -1.4037306050e-04 0.0000000000e+00 
          -6.1199533345e-04 -1.9215294194e-03 0.0000000000e+00 
          2.5519111939e-06 -1.9928143490e-03 0.0000000000e+00 
          6.1590684753e-04 -1.9210945213e-03 0.0000000000e+00 
          6.5614776556e-04 -1.8302936130e-03 0.0000000000e+00 
          -6.5369844165e-04 -1.8309385640e-03 0.0000000000e+00 
          -3.5861016954e-04 -1.9749045865e-03 0.0000000000e+00 
          3.6341852135e-04 -1.9746863386e-03 0.0000000000e+00 
          2.2651267664e-04 -4.9761936996e-04 0.0000000000e+00 
          1.2542160108e-04 -1.4048761866e-04 0.0000000000e+00 
          3.0344482399e-04 -1.0279631234e-03 0.0000000000e+00 
          0.0000000000e+00 0.0000000000e+00 0.0000000000e+00 
          -1.3390051256e-05 -1.5299656292e-03 0.0000000000e+00 
          4.1260899797e-04 -1.8700352798e-03 0.0000000000e+00 
          -1.6193552546e-05 -2.2464201698e-03 0.0000000000e+00 
          -1.5410915048e-06 -1.8801246934e-03 0.0000000000e+00 
          1.3304456766e-05 -1.5094260294e-03 0.0000000000e+00 
          1.6072123915e-05 -2.2344530743e-03 0.0000000000e+00 
          -4.0869138747e-04 -1.8663290781e-03 0.0000000000e+00 
          2.0383911839e-06 -1.8437213320e-03 0.0000000000e+00 
          6.1828592693e-04 -1.8691230772e-03 0.0000000000e+00 
          6.5742533464e-04 -1.8705772754e-03 0.0000000000e+00 
          -6.1434643079e-04 -1.8691526703e-03 0.0000000000e+00 
          -6.5505975225e-04 -1.8705772738e-03 0.0000000000e+00 
          2.5572009009e-06 -1.8694583864e-03 0.0000000000e+00 
          -3.5960156968e-04 -1.8696391640e-03 0.0000000000e+00 
          3.6441318654e-04 -1.8696228843e-03 0.0000000000e+00 
          9.1738566638e-06 -4.9068231503e-04 0.0000000000e+00 
          1.4911489766e-05 -1.0022351546e-03 0.0000000000e+00 
          4.7741088513e-06 -1.3267040256e-04 0.0000000000e+00 
          -9.2130226287e-06 -4.9125874005e-04 0.0000000000e+00 
          -4.7702745690e-06 -1.3281572006e-04 0.0000000000e+00 
          2.5335759924e-05 -3.9101577493e-03 0.0000000000e+00 
          2.5906504736e-05 -5.0038057882e-03 0.0000000000e+00 
          2.6597010474e-05 -2.9387227337e-03 0.0000000000e+00 
          -2.5170590682e-05 -3.9133377061e-03 0.0000000000e+00 
          -2.6288626820e-05 -2.9426428696e-03 0.0000000000e+00 
          -2.5730785492e-05 -5.0077772645e-03 0.0000000000e+00 
          -1.4762446219e-05 -1.0057123283e-03 0.0000000000e+00 
        </DataArray>
        <DataArray type="Float32" Name="Displacement" NumberOfComponents="3" format="ascii">
          0.0000000000e+00 0.0000000000e+00 0.0000000000e+00 
          -3.8620997445e-04 -1.6814123144e-03 0.0000000000e+00 
          -4.3500791268e-04 -2.0567924194e-03 0.0000000000e+00 
          -6.3579077249e-04 -6.1548178289e-03 0.0000000000e+00 
          5.8438083941e-04 -6.1548849209e-03 0.0000000000e+00 
          3.7521019883e-04 -2.0324428431e-03 0.0000000000e+00 
          -3.7541229443e-04 -2.0313177083e-03 0.0000000000e+00 
          -5.8353153719e-04 -6.1496947839e-03 0.0000000000e+00 
          6.3524841885e-04 -6.1496229484e-03 0.0000000000e+00 
          4.3328492035e-04 -2.0594924636e-03 0.0000000000e+00 
          3.8596184854e-04 -1.6781180128e-03 0.0000000000e+00 
          0.0000000000e+00 0.0000000000e+00 0.0000000000e+00 
          0.0000000000e+00 0.0000000000e+00 0.0000000000e+00 
          -3.5311061273e-04 -1.7029689391e-03 0.0000000000e+00 
          3.5345718953e-04 -1.7037192818e-03 0.0000000000e+00 
          0.0000000000e+00 0.0000000000e+00 0.0000000000e+00 
          -2.4626207424e-04 -4.9819601396e-04 0.0000000000e+00 
          -1.3490446069e-04 -1.4167531930e-04 0.0000000000e+00 
          -3.3085442587e-04 -1.0331987787e-03 0.0000000000e+00 
          -4.1875852939e-04 -1.9597739214e-03 0.0000000000e+00 
          -5.8488624091e-04 -3.9099894614e-03 0.0000000000e+00 
          -5.1877165442e-04 -2.9072160086e-03 0.0000000000e+00 
          -6.2273771923e-04 -5.0080763202e-03 0.0000000000e+00 
          -2.5705589191e-05 -6.1535261744e-03 0.0000000000e+00 
          5.3279181498e-04 -3.9099449563e-03 0.0000000000e+00 
          4.7012409292e-04 -2.9102843799e-03 0.0000000000e+00 
          5.7144103615e-04 -5.0079683843e-03 0.0000000000e+00 
          6.1684318083e-04 -1.8182732739e-03 0.0000000000e+00 
          2.5511030193e-06 -1.7462911636e-03 0.0000000000e+00 
          -6.1296819561e-04 -1.8179055005e-03 0.0000000000e+00 
          6.5129654309e-04 -1.9082497738e-03 0.0000000000e+00 
          -6.4873713455e-04 -1.9076285384e-03 0.0000000000e+00 
          -3.5845251471e-04 -1.7639772457e-03 0.0000000000e+00 
          3.6327398747e-04 -1.7641530811e-03 0.0000000000e+00 
          -5.3190327912e-04 -3.9073280236e-03 0.0000000000e+00 
          -5.7060790889e-04 -5.0040733137e-03 0.0000000000e+00 
          -4.6934860774e-04 -2.9092954522e-03 0.0000000000e+00 
          2.5852771996e-05 -6.1483291700e-03 0.0000000000e+00 
          5.8438328216e-04 -3.9074796242e-03 0.0000000000e+00 
          6.2218168125e-04 -5.0041791980e-03 0.0000000000e+00 
          5.1820125497e-04 -2.9054052741e-03 0.0000000000e+00 
          4.0196736534e-04 -1.7702642928e-03 0.0000000000e+00 
          2.4614362287e-04 -4.9775428443e-04 0.0000000000e+00 
          3.3063526587e-04 -1.0328437302e-03 0.0000000000e+00 
          1.3480028704e-04 -1.4155150961e-04 0.0000000000e+00 
          0.0000000000e+00 0.0000000000e+00 0.0000000000e+00 
          -2.2632764151e-04 -4.9718393357e-04 0.0000000000e+00 
          -3.0352247203e-04 -1.0273012925e-03 0.0000000000e+00 
          -1.2532927315e-04 -1.4037306050e-04 0.0000000000e+00 
          -6.1199533345e-04 -1.9215294194e-03 0.0000000000e+00 
          2.5519111939e-06 -1.9928143490e-03 0.0000000000e+00 
          6.1590684753e-04 -1.9210945213e-03 0.0000000000e+00 
          6.5614776556e-04 -1.8302936130e-03 0.0000000000e+00 
          -6.5369844165e-04 -1.8309385640e-03 0.0000000000e+00 
          -3.5861016954e-04 -1.9749045865e-03 0.0000000000e+00 
          3.6341852135e-04 -1.9746863386e-03 0.0000000000e+00 
          2.2651267664e-04 -4.9761936996e-04 0.0000000000e+00 
          1.2542160108e-04 -1.4048761866e-04 0.0000000000e+00 
          3.0344482399e-04 -1.0279631234e-03 0.0000000000e+00 
          0.0000000000e+00 0.0000000000e+00 0.0000000000e+00 
          -1.3390051256e-05 -1.5299656292e-03 0.0000000000e+00 
          4.1260899797e-04 -1.8700352798e-03 0.0000000000e+00 
          -1.6193552546e-05 -2.2464201698e-03 0.0000000000e+00 
          -1.5410915048e-06 -1.8801246934e-03 0.0000000000e+00 
          1.3304456766e-05 -1.5094260294e-03 0.0000000000e+00 
          1.6072123915e-05 -2.2344530743e-03 0.0000000000e+00 
          -4.0869138747e-04 -1.8663290781e-03 0.0000000000e+00 
          2.0383911839e-06 -1.8437213320e-03 0.0000000000e+00 
          6.1828592693e-04 -1.8691230772e-03 0.0000000000e+00 
          6.5742533464e-04 -1.8705772754e-03 0.0000000000e+00 
          -6.1434643079e-04 -1.8691526703e-03 0.0000000000e+00 
          -6.5505975225e-04 -1.8705772738e-03 0.0000000000e+00 
          2.5572009009e-06 -1.8694583864e-03 0.0000000000e+00 
          -3.5960156968e-04 -1.8696391640e-03 0.0000000000e+00 
          3.6441318654e-04 -1.8696228843e-03 0.0000000000e+00 
          9.1738566638e-06 -4.9068231503e-04 0.0000000000e+00 
          1.4911489766e-05 -1.0022351546e-03 0.0000000000e+00 
          4.7741088513e-06 -1.3267040256e-04 0.0000000000e+00 
          -9.2130226287e-06 -4.9125874005e-04 0.0000000000e+00 
          -4.7702745690e-06 -1.3281572006e-04 0.0000000000e+00 
          2.5335759924e-05 -3.9101577493e-03 0.0000000000e+00 
          2.5906504736e-05 -5.0038057882e-03 0.0000000000e+00 
          2.6597010474e-05 -2.9387227337e-03 0.0000000000e+00 
          -2.5170590682e-05 -3.9133377061e-03 0.0000000000e+00 
          -2.6288626820e-05 -2.9426428696e-03 0.0000000000e+00 
          -2.5730785492e-05 -5.0077772645e-03 0.0000000000e+00 
          -1.4762446219e-05 -1.0057123283e-03 0.0000000000e+00 
        </DataArray>
      </PointData>
      <CellData>
        <DataArray type="Int32" Name="ElementTag" format="ascii">
          0
        </DataArray>
      </CellData>
    </Piece>
  </UnstructuredGrid>
</VTKFile>
