<?xml version="1.0"?>
<VTKFile type="UnstructuredGrid" version="1.0" byte_order="LittleEndian" compressor="vtkZLibDataCompressor">
  <UnstructuredGrid>
    <Piece NumberOfPoints="150" NumberOfCells="98">
      <Points>
        <DataArray type="Float32" Name="Points" NumberOfComponents="3" format="ascii">
          1.0000000000e+01 0.0000000000e+00 8.0000000000e-01 
          0.0000000000e+00 0.0000000000e+00 8.0000000000e-01 
          1.0000000000e+01 3.0000000000e-01 8.0000000000e-01 
          0.0000000000e+00 3.0000000000e-01 8.0000000000e-01 
          9.7959183673e+00 0.0000000000e+00 8.0000000000e-01 
          9.5918367347e+00 0.0000000000e+00 8.0000000000e-01 
          9.3877551020e+00 0.0000000000e+00 8.0000000000e-01 
          9.1836734694e+00 0.0000000000e+00 8.0000000000e-01 
          8.9795918367e+00 0.0000000000e+00 8.0000000000e-01 
          8.7755102041e+00 0.0000000000e+00 8.0000000000e-01 
          8.5714285714e+00 0.0000000000e+00 8.0000000000e-01 
          8.3673469388e+00 0.0000000000e+00 8.0000000000e-01 
          8.1632653061e+00 0.0000000000e+00 8.0000000000e-01 
          7.9591836735e+00 0.0000000000e+00 8.0000000000e-01 
          7.7551020408e+00 0.0000000000e+00 8.0000000000e-01 
          7.5510204082e+00 0.0000000000e+00 8.0000000000e-01 
          7.3469387755e+00 0.0000000000e+00 8.0000000000e-01 
          7.1428571429e+00 0.0000000000e+00 8.0000000000e-01 
          6.9387755102e+00 0.0000000000e+00 8.0000000000e-01 
          6.7346938776e+00 0.0000000000e+00 8.0000000000e-01 
          6.5306122449e+00 0.0000000000e+00 8.0000000000e-01 
          6.3265306122e+00 0.0000000000e+00 8.0000000000e-01 
          6.1224489796e+00 0.0000000000e+00 8.0000000000e-01 
          5.9183673469e+00 0.0000000000e+00 8.0000000000e-01 
          5.7142857143e+00 0.0000000000e+00 8.0000000000e-01 
          5.5102040816e+00 0.0000000000e+00 8.0000000000e-01 
          5.3061224490e+00 0.0000000000e+00 8.0000000000e-01 
          5.1020408163e+00 0.0000000000e+00 8.0000000000e-01 
          4.8979591837e+00 0.0000000000e+00 8.0000000000e-01 
          4.6938775510e+00 0.0000000000e+00 8.0000000000e-01 
          4.4897959184e+00 0.0000000000e+00 8.0000000000e-01 
          4.2857142857e+00 0.0000000000e+00 8.0000000000e-01 
          4.0816326531e+00 0.0000000000e+00 8.0000000000e-01 
          3.8775510204e+00 0.0000000000e+00 8.0000000000e-01 
          3.6734693878e+00 0.0000000000e+00 8.0000000000e-01 
          3.4693877551e+00 0.0000000000e+00 8.0000000000e-01 
          3.2653061224e+00 0.0000000000e+00 8.0000000000e-01 
          3.0612244898e+00 0.0000000000e+00 8.0000000000e-01 
          2.8571428571e+00 0.0000000000e+00 8.0000000000e-01 
          2.6530612245e+00 0.0000000000e+00 8.0000000000e-01 
          2.4489795918e+00 0.0000000000e+00 8.0000000000e-01 
          2.2448979592e+00 0.0000000000e+00 8.0000000000e-01 
          2.0408163265e+00 0.0000000000e+00 8.0000000000e-01 
          1.8367346939e+00 0.0000000000e+00 8.0000000000e-01 
          1.6326530612e+00 0.0000000000e+00 8.0000000000e-01 
          1.4285714286e+00 0.0000000000e+00 8.0000000000e-01 
          1.2244897959e+00 0.0000000000e+00 8.0000000000e-01 
          1.0204081633e+00 0.0000000000e+00 8.0000000000e-01 
          8.1632653061e-01 0.0000000000e+00 8.0000000000e-01 
          6.1224489796e-01 0.0000000000e+00 8.0000000000e-01 
          4.0816326531e-01 0.0000000000e+00 8.0000000000e-01 
          2.0408163265e-01 0.0000000000e+00 8.0000000000e-01 
          9.7959183673e+00 3.0000000000e-01 8.0000000000e-01 
          9.5918367347e+00 3.0000000000e-01 8.0000000000e-01 
          9.3877551020e+00 3.0000000000e-01 8.0000000000e-01 
          9.1836734694e+00 3.0000000000e-01 8.0000000000e-01 
          8.9795918367e+00 3.0000000000e-01 8.0000000000e-01 
          8.7755102041e+00 3.0000000000e-01 8.0000000000e-01 
          8.5714285714e+00 3.0000000000e-01 8.0000000000e-01 
          8.3673469388e+00 3.0000000000e-01 8.0000000000e-01 
          8.1632653061e+00 3.0000000000e-01 8.0000000000e-01 
          7.9591836735e+00 3.0000000000e-01 8.0000000000e-01 
          7.7551020408e+00 3.0000000000e-01 8.0000000000e-01 
          7.5510204082e+00 3.0000000000e-01 8.0000000000e-01 
          7.3469387755e+00 3.0000000000e-01 8.0000000000e-01 
          7.1428571429e+00 3.0000000000e-01 8.0000000000e-01 
          6.9387755102e+00 3.0000000000e-01 8.0000000000e-01 
          6.7346938776e+00 3.0000000000e-01 8.0000000000e-01 
          6.5306122449e+00 3.0000000000e-01 8.0000000000e-01 
          6.3265306122e+00 3.0000000000e-01 8.0000000000e-01 
          6.1224489796e+00 3.0000000000e-01 8.0000000000e-01 
          5.9183673469e+00 3.0000000000e-01 8.0000000000e-01 
          5.7142857143e+00 3.0000000000e-01 8.0000000000e-01 
          5.5102040816e+00 3.0000000000e-01 8.0000000000e-01 
          5.3061224490e+00 3.0000000000e-01 8.0000000000e-01 
          5.1020408163e+00 3.0000000000e-01 8.0000000000e-01 
          4.8979591837e+00 3.0000000000e-01 8.0000000000e-01 
          4.6938775510e+00 3.0000000000e-01 8.0000000000e-01 
          4.4897959184e+00 3.0000000000e-01 8.0000000000e-01 
          4.2857142857e+00 3.0000000000e-01 8.0000000000e-01 
          4.0816326531e+00 3.0000000000e-01 8.0000000000e-01 
          3.8775510204e+00 3.0000000000e-01 8.0000000000e-01 
          3.6734693878e+00 3.0000000000e-01 8.0000000000e-01 
          3.4693877551e+00 3.0000000000e-01 8.0000000000e-01 
          3.2653061224e+00 3.0000000000e-01 8.0000000000e-01 
          3.0612244898e+00 3.0000000000e-01 8.0000000000e-01 
          2.8571428571e+00 3.0000000000e-01 8.0000000000e-01 
          2.6530612245e+00 3.0000000000e-01 8.0000000000e-01 
          2.4489795918e+00 3.0000000000e-01 8.0000000000e-01 
          2.2448979592e+00 3.0000000000e-01 8.0000000000e-01 
          2.0408163265e+00 3.0000000000e-01 8.0000000000e-01 
          1.8367346939e+00 3.0000000000e-01 8.0000000000e-01 
          1.6326530612e+00 3.0000000000e-01 8.0000000000e-01 
          1.4285714286e+00 3.0000000000e-01 8.0000000000e-01 
          1.2244897959e+00 3.0000000000e-01 8.0000000000e-01 
          1.0204081633e+00 3.0000000000e-01 8.0000000000e-01 
          8.1632653061e-01 3.0000000000e-01 8.0000000000e-01 
          6.1224489796e-01 3.0000000000e-01 8.0000000000e-01 
          4.0816326531e-01 3.0000000000e-01 8.0000000000e-01 
          2.0408163265e-01 3.0000000000e-01 8.0000000000e-01 
          1.0000000000e+01 1.5000000000e-01 8.0000000000e-01 
          0.0000000000e+00 1.5000000000e-01 8.0000000000e-01 
          9.7959183673e+00 1.5000000000e-01 8.0000000000e-01 
          9.5918367347e+00 1.5000000000e-01 8.0000000000e-01 
          9.3877551020e+00 1.5000000000e-01 8.0000000000e-01 
          9.1836734694e+00 1.5000000000e-01 8.0000000000e-01 
          8.9795918367e+00 1.5000000000e-01 8.0000000000e-01 
          8.7755102041e+00 1.5000000000e-01 8.0000000000e-01 
          8.5714285714e+00 1.5000000000e-01 8.0000000000e-01 
          8.3673469388e+00 1.5000000000e-01 8.0000000000e-01 
          8.1632653061e+00 1.5000000000e-01 8.0000000000e-01 
          7.9591836735e+00 1.5000000000e-01 8.0000000000e-01 
          7.7551020408e+00 1.5000000000e-01 8.0000000000e-01 
          7.5510204082e+00 1.5000000000e-01 8.0000000000e-01 
          7.3469387755e+00 1.5000000000e-01 8.0000000000e-01 
          7.1428571429e+00 1.5000000000e-01 8.0000000000e-01 
          6.9387755102e+00 1.5000000000e-01 8.0000000000e-01 
          6.7346938776e+00 1.5000000000e-01 8.0000000000e-01 
          6.5306122449e+00 1.5000000000e-01 8.0000000000e-01 
          6.3265306122e+00 1.5000000000e-01 8.0000000000e-01 
          6.1224489796e+00 1.5000000000e-01 8.0000000000e-01 
          5.9183673469e+00 1.5000000000e-01 8.0000000000e-01 
          5.7142857143e+00 1.5000000000e-01 8.0000000000e-01 
          5.5102040816e+00 1.5000000000e-01 8.0000000000e-01 
          5.3061224490e+00 1.5000000000e-01 8.0000000000e-01 
          5.1020408163e+00 1.5000000000e-01 8.0000000000e-01 
          4.8979591837e+00 1.5000000000e-01 8.0000000000e-01 
          4.6938775510e+00 1.5000000000e-01 8.0000000000e-01 
          4.4897959184e+00 1.5000000000e-01 8.0000000000e-01 
          4.2857142857e+00 1.5000000000e-01 8.0000000000e-01 
          4.0816326531e+00 1.5000000000e-01 8.0000000000e-01 
          3.8775510204e+00 1.5000000000e-01 8.0000000000e-01 
          3.6734693878e+00 1.5000000000e-01 8.0000000000e-01 
          3.4693877551e+00 1.5000000000e-01 8.0000000000e-01 
          3.2653061224e+00 1.5000000000e-01 8.0000000000e-01 
          3.0612244898e+00 1.5000000000e-01 8.0000000000e-01 
          2.8571428571e+00 1.5000000000e-01 8.0000000000e-01 
          2.6530612245e+00 1.5000000000e-01 8.0000000000e-01 
          2.4489795918e+00 1.5000000000e-01 8.0000000000e-01 
          2.2448979592e+00 1.5000000000e-01 8.0000000000e-01 
          2.0408163265e+00 1.5000000000e-01 8.0000000000e-01 
          1.8367346939e+00 1.5000000000e-01 8.0000000000e-01 
          1.6326530612e+00 1.5000000000e-01 8.0000000000e-01 
          1.4285714286e+00 1.5000000000e-01 8.0000000000e-01 
          1.2244897959e+00 1.5000000000e-01 8.0000000000e-01 
          1.0204081633e+00 1.5000000000e-01 8.0000000000e-01 
          8.1632653061e-01 1.5000000000e-01 8.0000000000e-01 
          6.1224489796e-01 1.5000000000e-01 8.0000000000e-01 
          4.0816326531e-01 1.5000000000e-01 8.0000000000e-01 
          2.0408163265e-01 1.5000000000e-01 8.0000000000e-01 
        </DataArray>
      </Points>
      <Cells>
        <DataArray type="Int32" Name="connectivity" format="ascii">
          51 149 1 101 
          149 101 3 99 
          50 148 51 149 
          148 149 99 98 
          49 147 50 148 
          147 148 98 97 
          48 146 49 147 
          146 147 97 96 
          47 145 48 146 
          145 146 96 95 
          46 144 47 145 
          145 95 94 144 
          45 143 46 144 
          143 144 94 93 
          44 142 45 143 
          142 143 93 92 
          43 141 44 142 
          141 142 92 91 
          42 140 43 141 
          140 141 91 90 
          41 139 42 140 
          139 140 90 89 
          40 138 41 139 
          138 139 89 88 
          39 137 40 138 
          137 138 88 87 
          38 136 39 137 
          136 137 87 86 
          37 135 38 136 
          135 136 86 85 
          36 134 37 135 
          134 135 85 84 
          35 133 36 134 
          133 134 84 83 
          34 132 35 133 
          132 133 83 82 
          33 131 34 132 
          131 132 82 81 
          32 130 33 131 
          130 131 81 80 
          31 129 32 130 
          129 130 80 79 
          30 128 31 129 
          128 129 79 78 
          29 127 30 128 
          127 128 78 77 
          28 126 29 127 
          126 127 77 76 
          27 125 28 126 
          126 76 75 125 
          26 124 27 125 
          124 125 75 74 
          25 123 26 124 
          124 74 73 123 
          24 122 25 123 
          123 73 72 122 
          23 121 24 122 
          121 122 72 71 
          22 120 23 121 
          121 71 70 120 
          21 119 22 120 
          120 70 69 119 
          20 118 21 119 
          119 69 68 118 
          19 117 20 118 
          118 68 67 117 
          18 116 19 117 
          116 117 67 66 
          17 115 18 116 
          115 116 66 65 
          16 114 17 115 
          114 115 65 64 
          15 113 16 114 
          113 114 64 63 
          14 112 15 113 
          112 113 63 62 
          13 111 14 112 
          111 112 62 61 
          12 110 13 111 
          111 61 60 110 
          11 109 12 110 
          109 110 60 59 
          10 108 11 109 
          109 59 58 108 
          9 107 10 108 
          108 58 57 107 
          8 106 9 107 
          106 107 57 56 
          7 105 8 106 
          105 106 56 55 
          6 104 7 105 
          105 55 54 104 
          5 103 6 104 
          104 54 53 103 
          4 102 5 103 
          102 103 53 52 
          0 100 4 102 
          100 102 52 2 
        </DataArray>
        <DataArray type="Int32" Name="offsets" format="ascii">
          4
          8
          12
          16
          20
          24
          28
          32
          36
          40
          44
          48
          52
          56
          60
          64
          68
          72
          76
          80
          84
          88
          92
          96
          100
          104
          108
          112
          116
          120
          124
          128
          132
          136
          140
          144
          148
          152
          156
          160
          164
          168
          172
          176
          180
          184
          188
          192
          196
          200
          204
          208
          212
          216
          220
          224
          228
          232
          236
          240
          244
          248
          252
          256
          260
          264
          268
          272
          276
          280
          284
          288
          292
          296
          300
          304
          308
          312
          316
          320
          324
          328
          332
          336
          340
          344
          348
          352
          356
          360
          364
          368
          372
          376
          380
          384
          388
          392
        </DataArray>
        <DataArray type="Int32" Name="types" format="ascii">
          9
          9
          9
          9
          9
          9
          9
          9
          9
          9
          9
          9
          9
          9
          9
          9
          9
          9
          9
          9
          9
          9
          9
          9
          9
          9
          9
          9
          9
          9
          9
          9
          9
          9
          9
          9
          9
          9
          9
          9
          9
          9
          9
          9
          9
          9
          9
          9
          9
          9
          9
          9
          9
          9
          9
          9
          9
          9
          9
          9
          9
          9
          9
          9
          9
          9
          9
          9
          9
          9
          9
          9
          9
          9
          9
          9
          9
          9
          9
          9
          9
          9
          9
          9
          9
          9
          9
          9
          9
          9
          9
          9
          9
          9
          9
          9
          9
          9
        </DataArray>
      </Cells>
      <PointData>
        <DataArray type="Int32" Name="NodeTag" format="ascii">
          3
          4
          7
          8
          60
          61
          62
          63
          64
          65
          66
          67
          68
          69
          70
          71
          72
          73
          74
          75
          76
          77
          78
          79
          80
          81
          82
          83
          84
          85
          86
          87
          88
          89
          90
          91
          92
          93
          94
          95
          96
          97
          98
          99
          100
          101
          102
          103
          104
          105
          106
          107
          162
          163
          164
          165
          166
          167
          168
          169
          170
          171
          172
          173
          174
          175
          176
          177
          178
          179
          180
          181
          182
          183
          184
          185
          186
          187
          188
          189
          190
          191
          192
          193
          194
          195
          196
          197
          198
          199
          200
          201
          202
          203
          204
          205
          206
          207
          208
          209
          215
          216
          412
          413
          414
          415
          416
          417
          418
          419
          420
          421
          422
          423
          424
          425
          426
          427
          428
          429
          430
          431
          432
          433
          434
          435
          436
          437
          438
          439
          440
          441
          442
          443
          444
          445
          446
          447
          448
          449
          450
          451
          452
          453
          454
          455
          456
          457
          458
          459
        </DataArray>
        <DataArray type="Float32" Name="AllDisplacement" NumberOfComponents="3" format="ascii">
          2.4976932436e-04 2.3970236478e-05 -4.6997355140e-03 
          0.0000000000e+00 0.0000000000e+00 0.0000000000e+00 
          2.5011520524e-04 2.3977094087e-05 -4.7223249917e-03 
          0.0000000000e+00 0.0000000000e+00 0.0000000000e+00 
          2.4977641027e-04 2.4186990135e-05 -4.5723248432e-03 
          2.4977607256e-04 2.4383709666e-05 -4.4448812966e-03 
          2.4975258674e-04 2.4555502107e-05 -4.3174387692e-03 
          2.4969274154e-04 2.4699575952e-05 -4.1900125050e-03 
          2.4958353462e-04 2.4815322373e-05 -4.0626254515e-03 
          2.4941207826e-04 2.4902493038e-05 -3.9353061847e-03 
          2.4916547197e-04 2.4961012559e-05 -3.8080897967e-03 
          2.4883081177e-04 2.4990852788e-05 -3.6810179290e-03 
          2.4839519994e-04 2.4992003493e-05 -3.5541388037e-03 
          2.4784574398e-04 2.4964460700e-05 -3.4275072192e-03 
          2.4716955425e-04 2.4908222947e-05 -3.3011845495e-03 
          2.4635374221e-04 2.4823289710e-05 -3.1752387432e-03 
          2.4538541958e-04 2.4709660815e-05 -3.0497443243e-03 
          2.4425169817e-04 2.4567336202e-05 -2.9247823922e-03 
          2.4293968978e-04 2.4396315852e-05 -2.8004406218e-03 
          2.4143650619e-04 2.4196599758e-05 -2.6768132638e-03 
          2.3972925918e-04 2.3968187918e-05 -2.5540011443e-03 
          2.3780506054e-04 2.3711080329e-05 -2.4321116651e-03 
          2.3565102205e-04 2.3425276993e-05 -2.3112588036e-03 
          2.3325425550e-04 2.3110777907e-05 -2.1915631129e-03 
          2.3060187266e-04 2.2767583074e-05 -2.0731517216e-03 
          2.2768098533e-04 2.2395692491e-05 -1.9561583340e-03 
          2.2447870528e-04 2.1995106161e-05 -1.8407232301e-03 
          2.2098214431e-04 2.1565824081e-05 -1.7269932652e-03 
          2.1717841419e-04 2.1107846253e-05 -1.6151218706e-03 
          2.1305462671e-04 2.0621172676e-05 -1.5052690530e-03 
          2.0859789366e-04 2.0105803351e-05 -1.3976013949e-03 
          2.0379532681e-04 1.9561738277e-05 -1.2922920541e-03 
          1.9863403796e-04 1.8988977454e-05 -1.1895207644e-03 
          1.9310113888e-04 1.8387520883e-05 -1.0894738349e-03 
          1.8718374136e-04 1.7757368563e-05 -9.9234415064e-04 
          1.8086895719e-04 1.7098520494e-05 -8.9833117195e-04 
          1.7414389814e-04 1.6410976676e-05 -8.0764093499e-04 
          1.6699567600e-04 1.5694737112e-05 -7.2048605148e-04 
          1.5941140252e-04 1.4949801813e-05 -6.3708570878e-04 
          1.5137818945e-04 1.4176170830e-05 -5.5766566985e-04 
          1.4288314837e-04 1.3373844353e-05 -4.8245827320e-04 
          1.3391339041e-04 1.2542823092e-05 -4.1170243269e-04 
          1.2445602497e-04 1.1683109486e-05 -3.4564363674e-04 
          1.1449815551e-04 1.0794711716e-05 -2.8453394754e-04 
          1.0402686768e-04 9.8776565308e-06 -2.2863199229e-04 
          9.3029194440e-05 8.9320365402e-06 -1.7820296859e-04 
          8.1492028647e-05 7.9580875585e-06 -1.3351848420e-04 
          6.9401448929e-05 6.9568880356e-06 -9.4856796640e-05 
          5.6743017425e-05 5.9322602259e-06 -6.2499631860e-05 
          4.3499174336e-05 4.8819031414e-06 -3.6751715705e-05 
          2.9611907862e-05 3.8436765632e-06 -1.7845593210e-05 
          1.5356152223e-05 3.2380352378e-06 -6.1833532476e-06 
          2.5009959321e-04 2.4196351119e-05 -4.5948717235e-03 
          2.5007263545e-04 2.4388354848e-05 -4.4673945084e-03 
          2.5001990715e-04 2.4550855873e-05 -4.3398987644e-03 
          2.4992924912e-04 2.4682125988e-05 -4.2124019136e-03 
          2.4978874001e-04 2.4781338006e-05 -4.0849256670e-03 
          2.4958582885e-04 2.4848197656e-05 -3.9574983491e-03 
          2.4930771731e-04 2.4882603718e-05 -3.8301549223e-03 
          2.4894153596e-04 2.4884521920e-05 -3.7029369891e-03 
          2.4847439779e-04 2.4853941698e-05 -3.5758927564e-03 
          2.4789341382e-04 2.4790859664e-05 -3.4490770173e-03 
          2.4718569553e-04 2.4695274732e-05 -3.3225511437e-03 
          2.4633835474e-04 2.4567186511e-05 -3.1963830838e-03 
          2.4533850331e-04 2.4406594850e-05 -3.0706473611e-03 
          2.4417325309e-04 2.4213499689e-05 -2.9454250750e-03 
          2.4282971587e-04 2.3987901003e-05 -2.8208039004e-03 
          2.4129500345e-04 2.3729798783e-05 -2.6968780878e-03 
          2.3955622761e-04 2.3439193026e-05 -2.5737484635e-03 
          2.3760050014e-04 2.3116083729e-05 -2.4515224292e-03 
          2.3541493282e-04 2.2760470894e-05 -2.3303139623e-03 
          2.3298663744e-04 2.2372354519e-05 -2.2102436159e-03 
          2.3030272577e-04 2.1951734604e-05 -2.0914385186e-03 
          2.2735030961e-04 2.1498611150e-05 -1.9740323747e-03 
          2.2411650073e-04 2.1012984157e-05 -1.8581654642e-03 
          2.2058841093e-04 2.0494853624e-05 -1.7439846424e-03 
          2.1675315198e-04 1.9944219552e-05 -1.6316433407e-03 
          2.1259783567e-04 1.9361081941e-05 -1.5213015657e-03 
          2.0810957379e-04 1.8745440789e-05 -1.4131258998e-03 
          2.0327547811e-04 1.8097296099e-05 -1.3072895010e-03 
          1.9808266043e-04 1.7416647869e-05 -1.2039721030e-03 
          1.9251823252e-04 1.6703496099e-05 -1.1033600149e-03 
          1.8656930617e-04 1.5957840789e-05 -1.0056461217e-03 
          1.8022299317e-04 1.5179681940e-05 -9.1102988386e-04 
          1.7346640531e-04 1.4369019551e-05 -8.1971733742e-04 
          1.6628665436e-04 1.3525853625e-05 -7.3192109414e-04 
          1.5867085214e-04 1.2650184177e-05 -6.4786034136e-04 
          1.5060611053e-04 1.1742011262e-05 -5.6776084206e-04 
          1.4207954157e-04 1.0801335082e-05 -4.9185493484e-04 
          1.3307825780e-04 9.8281563162e-06 -4.2038153402e-04 
          1.2358937327e-04 8.8224772690e-06 -3.5358612980e-04 
          1.1360000616e-04 7.7843058829e-06 -2.9172079089e-04 
          1.0309728899e-04 6.7136681405e-06 -2.3504416770e-04 
          9.2068404832e-05 5.6106478578e-06 -1.8382153629e-04 
          8.0500719423e-05 4.4755667284e-06 -1.3832477023e-04 
          6.8381836472e-05 3.3092167721e-06 -9.8832980553e-05 
          5.5702007622e-05 2.1134124693e-06 -6.5630658044e-05 
          4.2458602045e-05 9.0960721423e-07 -3.9030664036e-05 
          2.8639826941e-05 -2.8935922866e-07 -1.9290797436e-05 
          1.4661851679e-05 -1.7248143930e-06 -6.8449065258e-06 
          2.4994179015e-04 2.3969626436e-05 -4.7110298302e-03 
          0.0000000000e+00 0.0000000000e+00 0.0000000000e+00 
          2.4993816136e-04 2.4189145470e-05 -4.5835976672e-03 
          2.4992548693e-04 2.4383508054e-05 -4.4561376948e-03 
          2.4988800755e-04 2.4550751759e-05 -4.3286694993e-03 
          2.4981333636e-04 2.4688467444e-05 -4.2012091613e-03 
          2.4968908065e-04 2.4795956225e-05 -4.0737790731e-03 
          2.4950250258e-04 2.4872975823e-05 -3.9464076973e-03 
          2.4924075174e-04 2.4919439777e-05 -3.8191300657e-03 
          2.4889093948e-04 2.4935319447e-05 -3.6919878010e-03 
          2.4844017298e-04 2.4920604826e-05 -3.5650291174e-03 
          2.4787556146e-04 2.4875292463e-05 -3.4383088107e-03 
          2.4718421586e-04 2.4799381136e-05 -3.3118882536e-03 
          2.4635324784e-04 2.4692870413e-05 -3.1858353945e-03 
          2.4536976921e-04 2.4555760137e-05 -3.0602247571e-03 
          2.4422089179e-04 2.4388050251e-05 -2.9351374410e-03 
          2.4289372738e-04 2.4189740733e-05 -2.8106611209e-03 
          2.4137538777e-04 2.3960831576e-05 -2.6868900475e-03 
          2.3965298475e-04 2.3701322777e-05 -2.5639250469e-03 
          2.3771363009e-04 2.3411214335e-05 -2.4418735210e-03 
          2.3554443558e-04 2.3090506249e-05 -2.3208494471e-03 
          2.3313251300e-04 2.2739198519e-05 -2.2009733782e-03 
          2.3046497415e-04 2.2357291145e-05 -2.0823724432e-03 
          2.2752893080e-04 2.1944784127e-05 -1.9651803461e-03 
          2.2431149474e-04 2.1501677465e-05 -1.8495373670e-03 
          2.2079977774e-04 2.1027971159e-05 -1.7355903614e-03 
          2.1698089161e-04 2.0523665208e-05 -1.6234927603e-03 
          2.1284194811e-04 1.9988759614e-05 -1.5134045706e-03 
          2.0837005904e-04 1.9423254376e-05 -1.4054923746e-03 
          2.0355233618e-04 1.8827149494e-05 -1.2999293303e-03 
          1.9837589130e-04 1.8200444967e-05 -1.1968951714e-03 
          1.9282783621e-04 1.7543140797e-05 -1.0965762071e-03 
          1.8689528268e-04 1.6855236982e-05 -9.9916532228e-04 
          1.8056534249e-04 1.6136733522e-05 -9.0486197739e-04 
          1.7382512742e-04 1.5387630419e-05 -8.1387220855e-04 
          1.6666174927e-04 1.4607927673e-05 -7.2640862748e-04 
          1.5906231983e-04 1.3797625296e-05 -6.4269042154e-04 
          1.5101395088e-04 1.2956723334e-05 -5.6294335369e-04 
          1.4250375425e-04 1.2085221965e-05 -4.8739976249e-04 
          1.3351884180e-04 1.1183121814e-05 -4.1629856200e-04 
          1.2404632522e-04 1.0250425058e-05 -3.4988524168e-04 
          1.1407331548e-04 9.2871389960e-06 -2.8841186648e-04 
          1.0358692229e-04 8.2932881786e-06 -2.3213707774e-04 
          9.2574247447e-05 7.2689520638e-06 -1.8132610332e-04 
          8.1022419123e-05 6.2143951512e-06 -1.3625072307e-04 
          6.8918594723e-05 5.1304437730e-06 -9.7189391948e-05 
          5.6248798420e-05 4.0198737488e-06 -6.4427193252e-05 
          4.2999144114e-05 2.8907883164e-06 -3.8260213688e-05 
          2.9237843125e-05 1.7700051093e-06 -1.8971924150e-05 
          1.4632865020e-05 7.2628023331e-07 -6.9496401582e-06 
        </DataArray>
        <DataArray type="Float32" Name="Displacement" NumberOfComponents="3" format="ascii">
          2.4976932436e-04 2.3970236478e-05 -4.6997355140e-03 
          0.0000000000e+00 0.0000000000e+00 0.0000000000e+00 
          2.5011520524e-04 2.3977094087e-05 -4.7223249917e-03 
          0.0000000000e+00 0.0000000000e+00 0.0000000000e+00 
          2.4977641027e-04 2.4186990135e-05 -4.5723248432e-03 
          2.4977607256e-04 2.4383709666e-05 -4.4448812966e-03 
          2.4975258674e-04 2.4555502107e-05 -4.3174387692e-03 
          2.4969274154e-04 2.4699575952e-05 -4.1900125050e-03 
          2.4958353462e-04 2.4815322373e-05 -4.0626254515e-03 
          2.4941207826e-04 2.4902493038e-05 -3.9353061847e-03 
          2.4916547197e-04 2.4961012559e-05 -3.8080897967e-03 
          2.4883081177e-04 2.4990852788e-05 -3.6810179290e-03 
          2.4839519994e-04 2.4992003493e-05 -3.5541388037e-03 
          2.4784574398e-04 2.4964460700e-05 -3.4275072192e-03 
          2.4716955425e-04 2.4908222947e-05 -3.3011845495e-03 
          2.4635374221e-04 2.4823289710e-05 -3.1752387432e-03 
          2.4538541958e-04 2.4709660815e-05 -3.0497443243e-03 
          2.4425169817e-04 2.4567336202e-05 -2.9247823922e-03 
          2.4293968978e-04 2.4396315852e-05 -2.8004406218e-03 
          2.4143650619e-04 2.4196599758e-05 -2.6768132638e-03 
          2.3972925918e-04 2.3968187918e-05 -2.5540011443e-03 
          2.3780506054e-04 2.3711080329e-05 -2.4321116651e-03 
          2.3565102205e-04 2.3425276993e-05 -2.3112588036e-03 
          2.3325425550e-04 2.3110777907e-05 -2.1915631129e-03 
          2.3060187266e-04 2.2767583074e-05 -2.0731517216e-03 
          2.2768098533e-04 2.2395692491e-05 -1.9561583340e-03 
          2.2447870528e-04 2.1995106161e-05 -1.8407232301e-03 
          2.2098214431e-04 2.1565824081e-05 -1.7269932652e-03 
          2.1717841419e-04 2.1107846253e-05 -1.6151218706e-03 
          2.1305462671e-04 2.0621172676e-05 -1.5052690530e-03 
          2.0859789366e-04 2.0105803351e-05 -1.3976013949e-03 
          2.0379532681e-04 1.9561738277e-05 -1.2922920541e-03 
          1.9863403796e-04 1.8988977454e-05 -1.1895207644e-03 
          1.9310113888e-04 1.8387520883e-05 -1.0894738349e-03 
          1.8718374136e-04 1.7757368563e-05 -9.9234415064e-04 
          1.8086895719e-04 1.7098520494e-05 -8.9833117195e-04 
          1.7414389814e-04 1.6410976676e-05 -8.0764093499e-04 
          1.6699567600e-04 1.5694737112e-05 -7.2048605148e-04 
          1.5941140252e-04 1.4949801813e-05 -6.3708570878e-04 
          1.5137818945e-04 1.4176170830e-05 -5.5766566985e-04 
          1.4288314837e-04 1.3373844353e-05 -4.8245827320e-04 
          1.3391339041e-04 1.2542823092e-05 -4.1170243269e-04 
          1.2445602497e-04 1.1683109486e-05 -3.4564363674e-04 
          1.1449815551e-04 1.0794711716e-05 -2.8453394754e-04 
          1.0402686768e-04 9.8776565308e-06 -2.2863199229e-04 
          9.3029194440e-05 8.9320365402e-06 -1.7820296859e-04 
          8.1492028647e-05 7.9580875585e-06 -1.3351848420e-04 
          6.9401448929e-05 6.9568880356e-06 -9.4856796640e-05 
          5.6743017425e-05 5.9322602259e-06 -6.2499631860e-05 
          4.3499174336e-05 4.8819031414e-06 -3.6751715705e-05 
          2.9611907862e-05 3.8436765632e-06 -1.7845593210e-05 
          1.5356152223e-05 3.2380352378e-06 -6.1833532476e-06 