<?xml version="1.0"?>
<VTKFile type="UnstructuredGrid" version="1.0" byte_order="LittleEndian" compressor="vtkZLibDataCompressor">
  <UnstructuredGrid>
    <Piece NumberOfPoints="54" NumberOfCells="88">
      <Points>
        <DataArray type="Float32" Name="Points" NumberOfComponents="3" format="ascii">
          0.0000000000e+00 0.0000000000e+00 0.0000000000e+00 
          7.0000000000e+00 0.0000000000e+00 0.0000000000e+00 
          1.4000000000e+01 0.0000000000e+00 0.0000000000e+00 
          2.1000000000e+01 0.0000000000e+00 0.0000000000e+00 
          2.8000000000e+01 0.0000000000e+00 0.0000000000e+00 
          3.5000000000e+01 0.0000000000e+00 0.0000000000e+00 
          0.0000000000e+00 5.0000000000e+00 0.0000000000e+00 
          7.0000000000e+00 5.0000000000e+00 0.0000000000e+00 
          1.4000000000e+01 5.0000000000e+00 0.0000000000e+00 
          2.1000000000e+01 5.0000000000e+00 0.0000000000e+00 
          2.8000000000e+01 5.0000000000e+00 0.0000000000e+00 
          3.5000000000e+01 5.0000000000e+00 0.0000000000e+00 
          0.0000000000e+00 1.0000000000e+01 0.0000000000e+00 
          7.0000000000e+00 1.0000000000e+01 0.0000000000e+00 
          1.4000000000e+01 1.0000000000e+01 0.0000000000e+00 
          2.1000000000e+01 1.0000000000e+01 0.0000000000e+00 
          2.8000000000e+01 1.0000000000e+01 0.0000000000e+00 
          3.5000000000e+01 1.0000000000e+01 0.0000000000e+00 
          0.0000000000e+00 1.5000000000e+01 0.0000000000e+00 
          7.0000000000e+00 1.5000000000e+01 0.0000000000e+00 
          1.4000000000e+01 1.5000000000e+01 0.0000000000e+00 
          2.1000000000e+01 1.5000000000e+01 0.0000000000e+00 
          2.8000000000e+01 1.5000000000e+01 0.0000000000e+00 
          3.5000000000e+01 1.5000000000e+01 0.0000000000e+00 
          0.0000000000e+00 2.0000000000e+01 0.0000000000e+00 
          7.0000000000e+00 2.0000000000e+01 0.0000000000e+00 
          1.4000000000e+01 2.0000000000e+01 0.0000000000e+00 
          2.1000000000e+01 2.0000000000e+01 0.0000000000e+00 
          2.8000000000e+01 2.0000000000e+01 0.0000000000e+00 
          3.5000000000e+01 2.0000000000e+01 0.0000000000e+00 
          0.0000000000e+00 2.5000000000e+01 0.0000000000e+00 
          7.0000000000e+00 2.5000000000e+01 0.0000000000e+00 
          1.4000000000e+01 2.5000000000e+01 0.0000000000e+00 
          2.1000000000e+01 2.5000000000e+01 0.0000000000e+00 
          2.8000000000e+01 2.5000000000e+01 0.0000000000e+00 
          3.5000000000e+01 2.5000000000e+01 0.0000000000e+00 
          0.0000000000e+00 3.0000000000e+01 0.0000000000e+00 
          7.0000000000e+00 3.0000000000e+01 0.0000000000e+00 
          1.4000000000e+01 3.0000000000e+01 0.0000000000e+00 
          2.1000000000e+01 3.0000000000e+01 0.0000000000e+00 
          2.8000000000e+01 3.0000000000e+01 0.0000000000e+00 
          3.5000000000e+01 3.0000000000e+01 0.0000000000e+00 
          0.0000000000e+00 3.5000000000e+01 0.0000000000e+00 
          7.0000000000e+00 3.5000000000e+01 0.0000000000e+00 
          1.4000000000e+01 3.5000000000e+01 0.0000000000e+00 
          2.1000000000e+01 3.5000000000e+01 0.0000000000e+00 
          2.8000000000e+01 3.5000000000e+01 0.0000000000e+00 
          3.5000000000e+01 3.5000000000e+01 0.0000000000e+00 
          0.0000000000e+00 4.0000000000e+01 0.0000000000e+00 
          7.0000000000e+00 4.0000000000e+01 0.0000000000e+00 
          1.4000000000e+01 4.0000000000e+01 0.0000000000e+00 
          2.1000000000e+01 4.0000000000e+01 0.0000000000e+00 
          2.8000000000e+01 4.0000000000e+01 0.0000000000e+00 
          3.5000000000e+01 4.0000000000e+01 0.0000000000e+00 
        </DataArray>
      </Points>
      <Cells>
        <DataArray type="Int32" Name="connectivity" format="ascii">
          6 7 
          7 8 
          8 9 
          9 10 
          10 11 
          12 13 
          13 14 
          14 15 
          15 16 
          16 17 
          18 19 
          19 20 
          20 21 
          21 22 
          22 23 
          24 25 
          25 26 
          26 27 
          27 28 
          28 29 
          30 31 
          31 32 
          32 33 
          33 34 
          34 35 
          36 37 
          37 38 
          38 39 
          39 40 
          40 41 
          42 43 
          43 44 
          44 45 
          45 46 
          46 47 
          48 49 
          49 50 
          50 51 
          51 52 
          52 53 
          0 6 
          1 7 
          2 8 
          3 9 
          4 10 
          5 11 
          6 12 
          7 13 
          8 14 
          9 15 
          10 16 
          11 17 
          12 18 
          13 19 
          14 20 
          15 21 
          16 22 
          17 23 
          18 24 
          19 25 
          20 26 
          21 27 
          22 28 
          23 29 
          24 30 
          25 31 
          26 32 
          27 33 
          28 34 
          29 35 
          30 36 
          31 37 
          32 38 
          33 39 
          34 40 
          35 41 
          36 42 
          37 43 
          38 44 
          39 45 
          40 46 
          41 47 
          42 48 
          43 49 
          44 50 
          45 51 
          46 52 
          47 53 
        </DataArray>
        <DataArray type="Int32" Name="offsets" format="ascii">
          2
          4
          6
          8
          10
          12
          14
          16
          18
          20
          22
          24
          26
          28
          30
          32
          34
          36
          38
          40
          42
          44
          46
          48
          50
          52
          54
          56
          58
          60
          62
          64
          66
          68
          70
          72
          74
          76
          78
          80
          82
          84
          86
          88
          90
          92
          94
          96
          98
          100
          102
          104
          106
          108
          110
          112
          114
          116
          118
          120
          122
          124
          126
          128
          130
          132
          134
          136
          138
          140
          142
          144
          146
          148
          150
          152
          154
          156
          158
          160
          162
          164
          166
          168
          170
          172
          174
          176
        </DataArray>
        <DataArray type="Int32" Name="types" format="ascii">
          3
          3
          3
          3
          3
          3
          3
          3
          3
          3
          3
          3
          3
          3
          3
          3
          3
          3
          3
          3
          3
          3
          3
          3
          3
          3
          3
          3
          3
          3
          3
          3
          3
          3
          3
          3
          3
          3
          3
          3
          3
          3
          3
          3
          3
          3
          3
          3
          3
          3
          3
          3
          3
          3
          3
          3
          3
          3
          3
          3
          3
          3
          3
          3
          3
          3
          3
          3
          3
          3
          3
          3
          3
          3
          3
          3
          3
          3
          3
          3
          3
          3
          3
          3
          3
          3
          3
          3
        </DataArray>
      </Cells>
      <PointData>
        <DataArray type="Int32" Name="NodeTag" format="ascii">
          1
          2
          3
          4
          5
          6
          7
          8
          9
          10
          11
          12
          13
          14
          15
          16
          17
          18
          19
          20
          21
          22
          23
          24
          25
          26
          27
          28
          29
          30
          31
          32
          33
          34
          35
          36
          37
          38
          39
          40
          41
          42
          43
          44
          45
          46
          47
          48
          49
          50
          51
          52
          53
          54
        </DataArray>
        <DataArray type="Float32" Name="AllDisplacement" NumberOfComponents="3" format="ascii">
          0.0000000000e+00 0.0000000000e+00 0.0000000000e+00 
          0.0000000000e+00 0.0000000000e+00 0.0000000000e+00 
          0.0000000000e+00 0.0000000000e+00 0.0000000000e+00 
          0.0000000000e+00 0.0000000000e+00 0.0000000000e+00 
          0.0000000000e+00 0.0000000000e+00 0.0000000000e+00 
          0.0000000000e+00 0.0000000000e+00 0.0000000000e+00 
          -2.2073737050e-05 -7.9802603951e-04 -1.0723655385e-03 
          -1.2994327494e-05 -1.6894744202e-03 1.1026119902e-04 
          -4.3236843563e-06 -1.6606476885e-03 -1.8140998354e-05 
          4.3236843563e-06 -1.6606476885e-03 1.8140998354e-05 
          1.2994327494e-05 -1.6894744202e-03 -1.1026119902e-04 
          2.2073737050e-05 -7.9802603951e-04 1.0723655385e-03 
          -9.4640543101e-07 -1.5000480194e-03 -9.7806450752e-04 
          -1.1294458521e-06 -3.1629287658e-03 3.3312022075e-05 
          -3.1739632150e-07 -3.1148009925e-03 -8.6908687474e-07 
          3.1739632149e-07 -3.1148009925e-03 8.6908687474e-07 
          1.1294458520e-06 -3.1629287658e-03 -3.3312022075e-05 
          9.4640543100e-07 -1.5000480194e-03 9.7806450752e-04 
          -3.0140297159e-06 -2.1034780638e-03 -1.0437181994e-03 
          -2.0754744579e-06 -4.4236604840e-03 1.0085039144e-05 
          -6.6508061236e-07 -4.3617503411e-03 2.3579331767e-06 
          6.6508061233e-07 -4.3617503411e-03 -2.3579331767e-06 
          2.0754744579e-06 -4.4236604840e-03 -1.0085039144e-05 
          3.0140297159e-06 -2.1034780638e-03 1.0437181994e-03 
          -2.1470132964e-06 -2.6072394945e-03 -1.0785563805e-03 
          -1.5500777586e-06 -5.4730068001e-03 -1.7206557306e-05 
          -4.8828773223e-07 -5.4012351869e-03 7.4113466841e-06 
          4.8828773220e-07 -5.4012351869e-03 -7.4113466841e-06 
          1.5500777586e-06 -5.4730068001e-03 1.7206557306e-05 
          2.1470132964e-06 -2.6072394945e-03 1.0785563805e-03 
          -1.9573584866e-06 -3.0103118858e-03 -1.1066150366e-03 
          -1.3369982755e-06 -6.3122608555e-03 -3.8980985134e-05 
          -4.3041239634e-07 -6.2329828142e-03 1.1422914155e-05 
          4.3041239630e-07 -6.2329828142e-03 -1.1422914155e-05 
          1.3369982754e-06 -6.3122608555e-03 3.8980985134e-05 
          1.9573584866e-06 -3.0103118858e-03 1.1066150366e-03 
          4.5050638248e-07 -3.3118811941e-03 -1.1450902477e-03 
          -4.6359594635e-08 -6.9424533747e-03 -4.7926011457e-05 
          1.8329048121e-08 -6.8567765423e-03 1.2097443255e-05 
          -1.8329048175e-08 -6.8567765423e-03 -1.2097443255e-05 
          4.6359594580e-08 -6.9424533747e-03 4.7926011457e-05 
          -4.5050638253e-07 -3.3118811941e-03 1.1450902477e-03 
          -1.4393383066e-05 -3.5114416006e-03 -1.0471359246e-03 
          -7.9840712491e-06 -7.3642000945e-03 -9.4713414298e-05 
          -2.6941536745e-06 -7.2725064531e-03 2.3411926472e-05 
          2.6941536744e-06 -7.2725064531e-03 -2.3411926472e-05 
          7.9840712490e-06 -7.3642000945e-03 9.4713414298e-05 
          1.4393383066e-05 -3.5114416006e-03 1.0471359246e-03 
          6.8229266647e-05 -3.6077452280e-03 -1.8623109181e-03 
          4.1047307600e-05 -7.5791537032e-03 4.7740769485e-05 
          1.3606795672e-05 -7.4797677355e-03 -5.9195459067e-06 
          -1.3606795672e-05 -7.4797677355e-03 5.9195459067e-06 
          -4.1047307600e-05 -7.5791537032e-03 -4.7740769485e-05 
          -6.8229266647e-05 -3.6077452280e-03 1.8623109181e-03 
        </DataArray>
        <DataArray type="Float32" Name="Displacement" NumberOfComponents="3" format="ascii">
          0.0000000000e+00 0.0000000000e+00 0.0000000000e+00 
          0.0000000000e+00 0.0000000000e+00 0.0000000000e+00 
          0.0000000000e+00 0.0000000000e+00 0.0000000000e+00 
          0.0000000000e+00 0.0000000000e+00 0.0000000000e+00 
          0.0000000000e+00 0.0000000000e+00 0.0000000000e+00 
          0.0000000000e+00 0.0000000000e+00 0.0000000000e+00 
          -2.2073737050e-05 -7.9802603951e-04 0.0000000000e+00 
          -1.2994327494e-05 -1.6894744202e-03 0.0000000000e+00 
          -4.3236843563e-06 -1.6606476885e-03 0.0000000000e+00 
          4.3236843563e-06 -1.6606476885e-03 0.0000000000e+00 
          1.2994327494e-05 -1.6894744202e-03 0.0000000000e+00 
          2.2073737050e-05 -7.9802603951e-04 0.0000000000e+00 
          -9.4640543101e-07 -1.5000480194e-03 0.0000000000e+00 
          -1.1294458521e-06 -3.1629287658e-03 0.0000000000e+00 
          -3.1739632150e-07 -3.1148009925e-03 0.0000000000e+00 
          3.1739632149e-07 -3.1148009925e-03 0.0000000000e+00 
          1.1294458520e-06 -3.1629287658e-03 0.0000000000e+00 
          9.4640543100e-07 -1.5000480194e-03 0.0000000000e+00 
          -3.0140297159e-06 -2.1034780638e-03 0.0000000000e+00 
          -2.0754744579e-06 -4.4236604840e-03 0.0000000000e+00 
          -6.6508061236e-07 -4.3617503411e-03 0.0000000000e+00 
          6.6508061233e-07 -4.3617503411e-03 0.0000000000e+00 
          2.0754744579e-06 -4.4236604840e-03 0.0000000000e+00 
          3.0140297159e-06 -2.1034780638e-03 0.0000000000e+00 
          -2.1470132964e-06 -2.6072394945e-03 0.0000000000e+00 
          -1.5500777586e-06 -5.4730068001e-03 0.0000000000e+00 
          -4.8828773223e-07 -5.4012351869e-03 0.0000000000e+00 
          4.8828773220e-07 -5.4012351869e-03 0.0000000000e+00 
          1.5500777586e-06 -5.4730068001e-03 0.0000000000e+00 
          2.1470132964e-06 -2.6072394945e-03 0.0000000000e+00 
          -1.9573584866e-06 -3.0103118858e-03 0.0000000000e+00 
          -1.3369982755e-06 -6.3122608555e-03 0.0000000000e+00 
          -4.3041239634e-07 -6.2329828142e-03 0.0000000000e+00 
          4.3041239630e-07 -6.2329828142e-03 0.0000000000e+00 
          1.3369982754e-06 -6.3122608555e-03 0.0000000000e+00 
          1.9573584866e-06 -3.0103118858e-03 0.0000000000e+00 
          4.5050638248e-07 -3.3118811941e-03 0.0000000000e+00 
          -4.6359594635e-08 -6.9424533747e-03 0.0000000000e+00 
          1.8329048121e-08 -6.8567765423e-03 0.0000000000e+00 
          -1.8329048175e-08 -6.8567765423e-03 0.0000000000e+00 
          4.6359594580e-08 -6.9424533747e-03 0.0000000000e+00 
          -4.5050638253e-07 -3.3118811941e-03 0.0000000000e+00 
          -1.4393383066e-05 -3.5114416006e-03 0.0000000000e+00 
          -7.9840712491e-06 -7.3642000945e-03 0.0000000000e+00 
          -2.6941536745e-06 -7.2725064531e-03 0.0000000000e+00 
          2.6941536744e-06 -7.2725064531e-03 0.0000000000e+00 
          7.9840712490e-06 -7.3642000945e-03 0.0000000000e+00 
          1.4393383066e-05 -3.5114416006e-03 0.0000000000e+00 
          6.8229266647e-05 -3.6077452280e-03 0.0000000000e+00 
          4.1047307600e-05 -7.5791537032e-03 0.0000000000e+00 
          1.3606795672e-05 -7.4797677355e-03 0.0000000000e+00 
          -1.3606795672e-05 -7.4797677355e-03 0.0000000000e+00 
          -4.1047307600e-05 -7.5791537032e-03 0.0000000000e+00 
          -6.8229266647e-05 -3.6077452280e-03 0.0000000000e+00 
        </DataArray>
      </PointData>
      <CellData>
        <DataArray type="Int32" Name="ElementTag" format="ascii">
          1
          2
          3
          4
          5
          6
          7
          8
          9
          10
          11
          12
          13
          14
          15
          16
          17
          18
          19
          20
          21
          22
          23
          24
          25
          26
          27
          28
          29
          30
          31
          32
          33
          34
          35
          36
          37
          38
          39
          40
          41
          42
          43
          44
          45
          46
          47
          48
          49
          50
          51
          52
          53
          54
          55
          56
          57
          58
          59
          60
          61
          62
          63
          64
          65
          66
          67
          68
          69
          70
          71
          72
          73
          74
          75
          76
          77
          78
          79
          80
          81
          82
          83
          84
          85
          86
          87
          88
        </DataArray>
      </CellData>
    </Piece>
  </UnstructuredGrid>
</VTKFile>
